6160
Atoms. Timestep: 0
1 3.25971 5.64598 4.81997
1 6e-06 11.292 4.81997
1 1.8627 9.67882 4.81997
1 5.1224 4.03284 4.81997
1 1.39702 7.25912 4.81997
1 4.65673 1.61313 4.81997
1 6.05375 8.87225 4.81997
1 2.79404 3.22627 4.81997
1 2.79404 3.22627 4.81997
1 4.19106 10.4854 4.81997
1 0.931351 4.83941 4.81997
1 5.58808 6.45255 4.81997
1 2.32837 0.806567 4.81997
1 3.72539 8.06569 4.81997
1 0.465678 2.4197 4.81997
1 4.19106 6.7214 4.81997
1 0.93135 1.07542 4.81997
1 6.05375 5.10827 4.81997
1 2.79404 10.7542 4.81997
1 2.32837 8.33454 4.81997
1 5.58807 2.68856 4.81997
1 0.465678 9.94768 4.81997
1 3.72539 4.3017 4.81997
1 1.8627 5.91484 4.81997
1 5.1224 0.268855 4.81997
1 3e-06 7.52797 4.81997
1 3.25971 1.88199 4.81997
1 4.65673 9.14111 4.81997
1 1.39702 3.49513 4.81997
1 3.25971 5.64598 1.60666
1 6e-06 11.292 1.60666
1 1.8627 9.67882 1.60666
1 5.1224 4.03284 1.60666
1 1.39702 7.25912 1.60666
1 4.65673 1.61313 1.60666
1 6.05375 8.87225 1.60666
1 2.79404 3.22627 1.60666
1 4.19106 10.4854 1.60666
1 0.931351 4.83941 1.60666
1 5.58808 6.45255 1.60666
1 2.32837 0.806567 1.60666
1 3.72539 8.06569 1.60666
1 0.465678 2.4197 1.60666
1 2.79404 6.99026 1.60666
1 6.05375 1.34428 1.60666
1 4.65673 5.37712 1.60666
1 1.39702 11.0231 1.60666
1 0.93135 8.6034 1.60666
1 4.19106 2.95742 1.60666
1 5.58808 10.2165 1.60666
1 2.32837 4.57055 1.60666
1 0.465676 6.18369 1.60666
1 3.72539 0.53771 1.60666
1 5.1224 7.79683 1.60666
1 1.8627 2.15085 1.60666
1 3.25971 9.40997 1.60666
1 5e-06 3.76398 1.60666
1 3.25971 16.9379 4.81997
1 6e-06 22.5839 4.81997
1 1.8627 20.9708 4.81997
1 5.1224 15.3248 4.81997
1 1.39702 18.5511 4.81997
1 4.65673 12.9051 4.81997
1 6.05375 20.1642 4.81997
1 2.79404 14.5182 4.81997
1 4.19106 21.7774 4.81997
1 0.931351 16.1314 4.81997
1 5.58808 17.7445 4.81997
1 2.32837 12.0985 4.81997
1 3.72539 19.3576 4.81997
1 0.465678 13.7117 4.81997
1 4.19106 18.0134 4.81997
1 0.93135 12.3674 4.81997
1 6.05375 16.4002 4.81997
1 2.79404 22.0462 4.81997
1 2.32837 19.6265 4.81997
1 5.58807 13.9805 4.81997
1 0.465678 21.2396 4.81997
1 3.72539 15.5937 4.81997
1 1.8627 17.2068 4.81997
1 5.1224 11.5608 4.81997
1 3e-06 18.8199 4.81997
1 3.25971 13.174 4.81997
1 4.65673 20.4331 4.81997
1 1.39702 14.7871 4.81997
1 3.25971 16.9379 1.60666
1 6e-06 22.5839 1.60666
1 1.8627 20.9708 1.60666
1 5.1224 15.3248 1.60666
1 1.39702 18.5511 1.60666
1 4.65673 12.9051 1.60666
1 6.05375 20.1642 1.60666
1 2.79404 14.5182 1.60666
1 4.19106 21.7774 1.60666
1 0.931351 16.1314 1.60666
1 5.58808 17.7445 1.60666
1 2.32837 12.0985 1.60666
1 3.72539 19.3576 1.60666
1 0.465678 13.7117 1.60666
1 2.79404 18.2822 1.60666
1 6.05375 12.6362 1.60666
1 4.65673 16.6691 1.60666
1 1.39702 22.3151 1.60666
1 0.93135 19.8954 1.60666
1 4.19106 14.2494 1.60666
1 5.58808 21.5085 1.60666
1 2.32837 15.8625 1.60666
1 0.465676 17.4757 1.60666
1 3.72539 11.8297 1.60666
1 5.1224 19.0888 1.60666
1 1.8627 13.4428 1.60666
1 3.25971 20.7019 1.60666
1 5e-06 15.0559 1.60666
1 3.25971 28.2299 4.81997
1 6e-06 33.8759 4.81997
1 1.8627 32.2627 4.81997
1 5.1224 26.6168 4.81997
1 1.39702 29.843 4.81997
1 4.65673 24.1971 4.81997
1 6.05375 31.4562 4.81997
1 2.79404 25.8102 4.81997
1 0.931351 27.4233 4.81997
1 5.58808 29.0365 4.81997
1 2.32837 23.3905 4.81997
1 3.72539 30.6496 4.81997
1 0.465678 25.0036 4.81997
1 4.19106 29.3053 4.81997
1 0.93135 23.6593 4.81997
1 6.05375 27.6922 4.81997
1 2.79404 33.3382 4.81997
1 2.32837 30.9185 4.81997
1 5.58807 25.2725 4.81997
1 0.465678 32.5316 4.81997
1 3.72539 26.8856 4.81997
1 1.8627 28.4988 4.81997
1 5.1224 22.8528 4.81997
1 3e-06 30.1119 4.81997
1 3.25971 24.4659 4.81997
1 4.65673 31.725 4.81997
1 1.39702 26.0791 4.81997
1 3.25971 28.2299 1.60666
1 6e-06 33.8759 1.60666
1 1.8627 32.2627 1.60666
1 5.1224 26.6168 1.60666
1 1.39702 29.843 1.60666
1 4.65673 24.1971 1.60666
1 6.05375 31.4562 1.60666
1 2.79404 25.8102 1.60666
1 4.19106 33.0693 1.60666
1 0.931351 27.4233 1.60666
1 5.58808 29.0365 1.60666
1 2.32837 23.3905 1.60666
1 3.72539 30.6496 1.60666
1 0.465678 25.0036 1.60666
1 2.79404 29.5742 1.60666
1 6.05375 23.9282 1.60666
1 4.65673 27.961 1.60666
1 1.39702 33.607 1.60666
1 0.93135 31.1873 1.60666
1 4.19106 25.5413 1.60666
1 5.58808 32.8005 1.60666
1 2.32837 27.1545 1.60666
1 0.465676 28.7676 1.60666
1 3.72539 23.1216 1.60666
1 5.1224 30.3808 1.60666
1 1.8627 24.7348 1.60666
1 3.25971 31.9939 1.60666
1 5e-06 26.3479 1.60666
1 3.25971 39.5219 4.81997
1 6e-06 45.1678 4.81997
1 1.8627 43.5547 4.81997
1 5.1224 37.9087 4.81997
1 1.39702 41.135 4.81997
1 4.65673 35.489 4.81997
1 6.05375 42.7481 4.81997
1 2.79404 37.1022 4.81997
1 4.19106 44.3613 4.81997
1 0.931351 38.7153 4.81997
1 5.58808 40.3284 4.81997
1 2.32837 34.6825 4.81997
1 3.72539 41.9416 4.81997
1 0.465678 36.2956 4.81997
1 4.19106 40.5973 4.81997
1 0.93135 34.9513 4.81997
1 6.05375 38.9842 4.81997
1 2.79404 44.6301 4.81997
1 2.32837 42.2104 4.81997
1 5.58807 36.5644 4.81997
1 0.465678 43.8236 4.81997
1 3.72539 38.1776 4.81997
1 1.8627 39.7907 4.81997
1 5.1224 34.1447 4.81997
1 3e-06 41.4039 4.81997
1 3.25971 35.7579 4.81997
1 4.65673 43.017 4.81997
1 1.39702 37.371 4.81997
1 3.25971 39.5219 1.60666
1 6e-06 45.1678 1.60666
1 1.8627 43.5547 1.60666
1 5.1224 37.9087 1.60666
1 1.39702 41.135 1.60666
1 4.65673 35.489 1.60666
1 6.05375 42.7481 1.60666
1 2.79404 37.1022 1.60666
1 4.19106 44.3613 1.60666
1 0.931351 38.7153 1.60666
1 5.58808 40.3284 1.60666
1 2.32837 34.6825 1.60666
1 3.72539 41.9416 1.60666
1 0.465678 36.2956 1.60666
1 2.79404 40.8661 1.60666
1 6.05375 35.2202 1.60666
1 4.65673 39.253 1.60666
1 1.39702 44.899 1.60666
1 0.93135 42.4793 1.60666
1 4.19106 36.8333 1.60666
1 5.58808 44.0924 1.60666
1 2.32837 38.4464 1.60666
1 0.465676 40.0596 1.60666
1 3.72539 34.4136 1.60666
1 5.1224 41.6727 1.60666
1 1.8627 36.0267 1.60666
1 3.25971 43.2859 1.60666
1 5e-06 37.6399 1.60666
1 3.25971 50.8138 4.81997
1 6e-06 56.4598 4.81997
1 1.8627 54.8467 4.81997
1 5.1224 49.2007 4.81997
1 1.39702 52.427 4.81997
1 4.65673 46.781 4.81997
1 6.05375 54.0401 4.81997
1 2.79404 48.3941 4.81997
1 4.19106 55.6532 4.81997
1 0.931351 50.0073 4.81997
1 5.58808 51.6204 4.81997
1 2.32837 45.9744 4.81997
1 3.72539 53.2335 4.81997
1 0.465678 47.5876 4.81997
1 4.19106 51.8893 4.81997
1 0.93135 46.2433 4.81997
1 6.05375 50.2761 4.81997
1 2.79404 55.9221 4.81997
1 2.32837 53.5024 4.81997
1 5.58807 47.8564 4.81997
1 0.465678 55.1155 4.81997
1 3.72539 49.4695 4.81997
1 1.8627 51.0827 4.81997
1 5.1224 45.4367 4.81997
1 3e-06 52.6958 4.81997
1 3.25971 47.0498 4.81997
1 4.65673 54.309 4.81997
1 1.39702 48.663 4.81997
1 3.25971 50.8138 1.60666
1 6e-06 56.4598 1.60666
1 1.8627 54.8467 1.60666
1 5.1224 49.2007 1.60666
1 1.39702 52.427 1.60666
1 4.65673 46.781 1.60666
1 6.05375 54.0401 1.60666
1 2.79404 48.3941 1.60666
1 4.19106 55.6532 1.60666
1 0.931351 50.0073 1.60666
1 5.58808 51.6204 1.60666
1 2.32837 45.9744 1.60666
1 3.72539 53.2335 1.60666
1 0.465678 47.5876 1.60666
1 2.79404 52.1581 1.60666
1 6.05375 46.5121 1.60666
1 4.65673 50.545 1.60666
1 1.39702 56.191 1.60666
1 0.93135 53.7712 1.60666
1 4.19106 48.1253 1.60666
1 5.58808 55.3844 1.60666
1 2.32837 49.7384 1.60666
1 0.465676 51.3515 1.60666
1 3.72539 45.7056 1.60666
1 5.1224 52.9647 1.60666
1 1.8627 47.3187 1.60666
1 3.25971 54.5778 1.60666
1 5e-06 48.9318 1.60666
1 3.25971 62.1058 4.81997
1 6e-06 67.7518 4.81997
1 1.8627 66.1386 4.81997
1 5.1224 60.4926 4.81997
1 1.39702 63.7189 4.81997
1 4.65673 58.0729 4.81997
1 6.05375 65.3321 4.81997
1 2.79404 59.6861 4.81997
1 4.19106 66.9452 4.81997
1 0.931351 61.2992 4.81997
1 5.58808 62.9124 4.81997
1 2.32837 57.2664 4.81997
1 3.72539 64.5255 4.81997
1 0.465678 58.8795 4.81997
1 4.19106 63.1812 4.81997
1 0.93135 57.5352 4.81997
1 6.05375 61.5681 4.81997
1 2.79404 67.2141 4.81997
1 2.32837 64.7944 4.81997
1 5.58807 59.1484 4.81997
1 0.465678 66.4075 4.81997
1 3.72539 60.7615 4.81997
1 1.8627 62.3746 4.81997
1 5.1224 56.7287 4.81997
1 3e-06 63.9878 4.81997
1 3.25971 58.3418 4.81997
1 4.65673 65.6009 4.81997
1 1.39702 59.9549 4.81997
1 3.25971 62.1058 1.60666
1 6e-06 67.7518 1.60666
1 1.8627 66.1386 1.60666
1 5.1224 60.4926 1.60666
1 1.39702 63.7189 1.60666
1 4.65673 58.0729 1.60666
1 6.05375 65.3321 1.60666
1 2.79404 59.6861 1.60666
1 4.19106 66.9452 1.60666
1 0.931351 61.2992 1.60666
1 5.58808 62.9124 1.60666
1 2.32837 57.2664 1.60666
1 3.72539 64.5255 1.60666
1 0.465678 58.8795 1.60666
1 2.79404 63.4501 1.60666
1 6.05375 57.8041 1.60666
1 4.65673 61.8369 1.60666
1 1.39702 67.4829 1.60666
1 0.93135 65.0632 1.60666
1 4.19106 59.4172 1.60666
1 5.58808 66.6763 1.60666
1 2.32837 61.0304 1.60666
1 0.465676 62.6435 1.60666
1 3.72539 56.9975 1.60666
1 5.1224 64.2566 1.60666
1 1.8627 58.6107 1.60666
1 3.25971 65.8698 1.60666
1 5e-06 60.2238 1.60666
1 3.25971 73.3978 4.81997
1 6e-06 79.0437 4.81997
1 1.8627 77.4306 4.81997
1 5.1224 71.7846 4.81997
1 1.39702 75.0109 4.81997
1 4.65673 69.3649 4.81997
1 6.05375 76.624 4.81997
1 2.79404 70.978 4.81997
1 4.19106 78.2372 4.81997
1 0.931351 72.5912 4.81997
1 5.58808 74.2043 4.81997
1 2.32837 68.5583 4.81997
1 3.72539 75.8175 4.81997
1 0.465678 70.1715 4.81997
1 4.19106 74.4732 4.81997
1 0.93135 68.8272 4.81997
1 6.05375 72.86 4.81997
1 2.79404 78.506 4.81997
1 2.32837 76.0863 4.81997
1 5.58807 70.4403 4.81997
1 0.465678 77.6994 4.81997
1 3.72539 72.0535 4.81997
1 1.8627 73.6666 4.81997
1 5.1224 68.0206 4.81997
1 3e-06 75.2797 4.81997
1 3.25971 69.6338 4.81997
1 4.65673 76.8929 4.81997
1 1.39702 71.2469 4.81997
1 3.25971 73.3978 1.60666
1 6e-06 79.0437 1.60666
1 1.8627 77.4306 1.60666
1 5.1224 71.7846 1.60666
1 1.39702 75.0109 1.60666
1 4.65673 69.3649 1.60666
1 6.05375 76.624 1.60666
1 2.79404 70.978 1.60666
1 4.19106 78.2372 1.60666
1 0.931351 72.5912 1.60666
1 5.58808 74.2043 1.60666
1 2.32837 68.5583 1.60666
1 3.72539 75.8175 1.60666
1 0.465678 70.1715 1.60666
1 2.79404 74.742 1.60666
1 6.05375 69.096 1.60666
1 4.65673 73.1289 1.60666
1 1.39702 78.7749 1.60666
1 0.93135 76.3552 1.60666
1 4.19106 70.7092 1.60666
1 5.58808 77.9683 1.60666
Ps„ 0 0 0
1 2.32837 72.3223 1.60666
1 0.465676 73.9355 1.60666
1 3.72539 68.2895 1.60666
1 5.1224 75.5486 1.60666
1 1.8627 69.9026 1.60666
1 3.25971 77.1617 1.60666
1 5e-06 71.5158 1.60666
1 3.25971 84.6897 4.81997
1 6e-06 90.3357 4.81997
1 1.8627 88.7226 4.81997
1 5.1224 83.0766 4.81997
1 1.39702 86.3029 4.81997
1 4.65673 80.6569 4.81997
1 6.05375 87.916 4.81997
1 2.79404 82.27 4.81997
1 4.19106 89.5291 4.81997
1 0.931351 83.8831 4.81997
1 5.58808 85.4963 4.81997
1 2.32837 79.8503 4.81997
1 3.72539 87.1094 4.81997
1 0.465678 81.4634 4.81997
1 4.19106 85.7651 4.81997
1 0.93135 80.1192 4.81997
1 6.05375 84.152 4.81997
1 2.79404 89.798 4.81997
1 2.32837 87.3783 4.81997
1 5.58807 81.7323 4.81997
1 0.465678 88.9914 4.81997
1 3.72539 83.3454 4.81997
1 1.8627 84.9586 4.81997
1 5.1224 79.3126 4.81997
1 3e-06 86.5717 4.81997
1 3.25971 80.9257 4.81997
1 4.65673 88.1848 4.81997
1 1.39702 82.5389 4.81997
1 3.25971 84.6897 1.60666
1 6e-06 90.3357 1.60666
1 1.8627 88.7226 1.60666
1 5.1224 83.0766 1.60666
1 1.39702 86.3029 1.60666
1 4.65673 80.6569 1.60666
1 6.05375 87.916 1.60666
1 2.79404 82.27 1.60666
1 4.19106 89.5291 1.60666
1 0.931351 83.8831 1.60666
1 5.58808 85.4963 1.60666
1 2.32837 79.8503 1.60666
1 3.72539 87.1094 1.60666
1 0.465678 81.4634 1.60666
1 2.79404 86.034 1.60666
1 6.05375 80.388 1.60666
1 4.65673 84.4209 1.60666
1 1.39702 90.0668 1.60666
1 0.93135 87.6471 1.60666
1 4.19106 82.0011 1.60666
1 5.58808 89.2603 1.60666
1 2.32837 83.6143 1.60666
1 0.465676 85.2274 1.60666
1 3.72539 79.5814 1.60666
1 5.1224 86.8406 1.60666
1 1.8627 81.1946 1.60666
1 3.25971 88.4537 1.60666
1 5e-06 82.8077 1.60666
1 3.25971 95.9817 4.81997
1 6e-06 101.628 4.81997
1 1.8627 100.015 4.81997
1 5.1224 94.3685 4.81997
1 1.39702 97.5948 4.81997
1 4.65673 91.9488 4.81997
1 6.05375 99.2079 4.81997
1 2.79404 93.562 4.81997
1 4.19106 100.821 4.81997
1 0.931351 95.1751 4.81997
1 5.58808 96.7882 4.81997
1 2.32837 91.1423 4.81997
1 3.72539 98.4014 4.81997
1 0.465678 92.7554 4.81997
1 4.19106 97.0571 4.81997
1 0.93135 91.4111 4.81997
1 6.05375 95.444 4.81997
1 2.79404 101.09 4.81997
1 2.32837 98.6702 4.81997
1 5.58807 93.0243 4.81997
1 0.465678 100.283 4.81997
1 3.72539 94.6374 4.81997
1 1.8627 96.2505 4.81997
1 5.1224 90.6045 4.81997
1 3e-06 97.8637 4.81997
1 3.25971 92.2177 4.81997
1 4.65673 99.4768 4.81997
1 1.39702 93.8308 4.81997
1 3.25971 95.9817 1.60666
1 6e-06 101.628 1.60666
1 1.8627 100.015 1.60666
1 5.1224 94.3685 1.60666
1 1.39702 97.5948 1.60666
1 4.65673 91.9488 1.60666
1 6.05375 99.2079 1.60666
1 2.79404 93.562 1.60666
1 4.19106 100.821 1.60666
1 0.931351 95.1751 1.60666
1 5.58808 96.7882 1.60666
1 2.32837 91.1423 1.60666
1 3.72539 98.4014 1.60666
1 0.465678 92.7554 1.60666
1 2.79404 97.326 1.60666
1 6.05375 91.68 1.60666
1 4.65673 95.7128 1.60666
1 1.39702 101.359 1.60666
1 0.93135 98.9391 1.60666
1 4.19106 93.2931 1.60666
1 5.58808 100.552 1.60666
1 2.32837 94.9062 1.60666
1 0.465676 96.5194 1.60666
1 3.72539 90.8734 1.60666
1 5.1224 98.1325 1.60666
1 1.8627 92.4865 1.60666
1 3.25971 99.7457 1.60666
1 5e-06 94.0997 1.60666
1 3.25971 107.274 4.81997
1 6e-06 112.92 4.81997
1 1.8627 111.306 4.81997
1 5.1224 105.66 4.81997
1 1.39702 108.887 4.81997
1 4.65673 103.241 4.81997
1 2.79404 104.854 4.81997
1 4.19106 112.113 4.81997
1 0.931351 106.467 4.81997
1 5.58808 108.08 4.81997
1 2.32837 102.434 4.81997
1 3.72539 109.693 4.81997
1 0.465678 104.047 4.81997
1 4.19106 108.349 4.81997
1 0.93135 102.703 4.81997
1 6.05375 106.736 4.81997
1 2.79404 112.382 4.81997
1 2.32837 109.962 4.81997
1 5.58807 104.316 4.81997
1 0.465678 111.575 4.81997
1 3.72539 105.929 4.81997
1 1.8627 107.542 4.81997
1 5.1224 101.897 4.81997
1 3e-06 109.156 4.81997
1 3.25971 103.51 4.81997
1 4.65673 110.769 4.81997
1 1.39702 105.123 4.81997
1 3.25971 107.274 1.60666
1 6e-06 112.92 1.60666
1 1.8627 111.306 1.60666
1 5.1224 105.66 1.60666
1 1.39702 108.887 1.60666
1 4.65673 103.241 1.60666
1 6.05375 110.5 1.60666
1 2.79404 104.854 1.60666
1 4.19106 112.113 1.60666
1 0.931351 106.467 1.60666
1 5.58808 108.08 1.60666
1 2.32837 102.434 1.60666
1 3.72539 109.693 1.60666
1 0.465678 104.047 1.60666
1 2.79404 108.618 1.60666
1 6.05375 102.972 1.60666
1 4.65673 107.005 1.60666
1 1.39702 112.651 1.60666
1 0.93135 110.231 1.60666
1 4.19106 104.585 1.60666
1 5.58808 111.844 1.60666
1 2.32837 106.198 1.60666
1 0.465676 107.811 1.60666
1 3.72539 102.165 1.60666
1 5.1224 109.424 1.60666
1 1.8627 103.779 1.60666
1 3.25971 111.038 1.60666
1 5e-06 105.392 1.60666
1 9.77913 5.64598 4.81997
1 6.51942 11.292 4.81997
1 8.38211 9.67882 4.81997
1 11.6418 4.03284 4.81997
1 7.91644 7.25912 4.81997
1 11.1762 1.61313 4.81997
1 12.5732 8.87225 4.81997
1 9.31346 3.22627 4.81997
1 10.7105 10.4854 4.81997
1 7.45077 4.83941 4.81997
1 12.1075 6.45255 4.81997
1 8.84779 0.806567 4.81997
1 10.2448 8.06569 4.81997
1 6.9851 2.4197 4.81997
1 10.7105 6.7214 4.81997
1 7.45077 1.07542 4.81997
1 12.5732 5.10827 4.81997
1 9.31346 10.7542 4.81997
1 8.84779 8.33454 4.81997
1 12.1075 2.68856 4.81997
1 6.9851 9.94768 4.81997
1 10.2448 4.3017 4.81997
1 8.38211 5.91484 4.81997
1 11.6418 0.268855 4.81997
1 6.51942 7.52797 4.81997
1 9.77913 1.88199 4.81997
1 11.1762 9.14111 4.81997
1 7.91644 3.49513 4.81997
1 9.77913 5.64598 1.60666
1 6.51942 11.292 1.60666
1 8.38211 9.67882 1.60666
1 11.6418 4.03284 1.60666
1 7.91644 7.25912 1.60666
1 11.1762 1.61313 1.60666
1 12.5732 8.87225 1.60666
1 9.31346 3.22627 1.60666
1 10.7105 10.4854 1.60666
1 7.45077 4.83941 1.60666
1 12.1075 6.45255 1.60666
1 8.84779 0.806567 1.60666
1 10.2448 8.06569 1.60666
1 6.9851 2.4197 1.60666
1 9.31346 6.99026 1.60666
1 12.5732 1.34428 1.60666
1 11.1761 5.37712 1.60666
1 7.91644 11.0231 1.60666
1 7.45077 8.6034 1.60666
1 10.7105 2.95742 1.60666
1 12.1075 10.2165 1.60666
1 8.84779 4.57055 1.60666
1 6.98509 6.18369 1.60666
1 10.2448 0.53771 1.60666
1 11.6418 7.79683 1.60666
1 8.38211 2.15085 1.60666
1 9.77913 9.40997 1.60666
1 6.51942 3.76398 1.60666
1 9.77913 16.9379 4.81997
1 6.51942 22.5839 4.81997
1 8.38211 20.9708 4.81997
1 11.6418 15.3248 4.81997
1 7.91644 18.5511 4.81997
1 11.1762 12.9051 4.81997
1 12.5732 20.1642 4.81997
1 9.31346 14.5182 4.81997
1 10.7105 21.7774 4.81997
1 7.45077 16.1314 4.81997
1 12.1075 17.7445 4.81997
1 8.84779 12.0985 4.81997
1 10.2448 19.3576 4.81997
1 6.9851 13.7117 4.81997
1 10.7105 18.0134 4.81997
1 7.45077 12.3674 4.81997
1 12.5732 16.4002 4.81997
1 9.31346 22.0462 4.81997
1 8.84779 19.6265 4.81997
1 12.1075 13.9805 4.81997
1 6.9851 21.2396 4.81997
1 10.2448 15.5937 4.81997
1 8.38211 17.2068 4.81997
1 11.6418 11.5608 4.81997
1 6.51942 18.8199 4.81997
1 9.77913 13.174 4.81997
1 11.1762 20.4331 4.81997
1 7.91644 14.7871 4.81997
1 9.77913 16.9379 1.60666
1 6.51942 22.5839 1.60666
1 8.38211 20.9708 1.60666
1 11.6418 15.3248 1.60666
1 7.91644 18.5511 1.60666
1 11.1762 12.9051 1.60666
1 12.5732 20.1642 1.60666
1 9.31346 14.5182 1.60666
1 10.7105 21.7774 1.60666
1 7.45077 16.1314 1.60666
1 12.1075 17.7445 1.60666
1 8.84779 12.0985 1.60666
1 10.2448 19.3576 1.60666
1 6.9851 13.7117 1.60666
1 9.31346 18.2822 1.60666
1 12.5732 12.6362 1.60666
1 11.1761 16.6691 1.60666
1 7.91644 22.3151 1.60666
1 7.45077 19.8954 1.60666
1 10.7105 14.2494 1.60666
1 12.1075 21.5085 1.60666
1 8.84779 15.8625 1.60666
1 6.98509 17.4757 1.60666
1 10.2448 11.8297 1.60666
1 11.6418 19.0888 1.60666
1 8.38211 13.4428 1.60666
1 9.77913 20.7019 1.60666
1 6.51942 15.0559 1.60666
1 9.77913 28.2299 4.81997
1 6.51942 33.8759 4.81997
1 8.38211 32.2627 4.81997
1 11.6418 26.6168 4.81997
1 7.91644 29.843 4.81997
1 11.1762 24.1971 4.81997
1 12.5732 31.4562 4.81997
1 9.31346 25.8102 4.81997
1 10.7105 33.0693 4.81997
1 7.45077 27.4233 4.81997
1 12.1075 29.0365 4.81997
1 8.84779 23.3905 4.81997
1 10.2448 30.6496 4.81997
1 6.9851 25.0036 4.81997
1 10.7105 29.3053 4.81997
1 7.45077 23.6593 4.81997
1 12.5732 27.6922 4.81997
1 9.31346 33.3382 4.81997
1 8.84779 30.9185 4.81997
1 12.1075 25.2725 4.81997
1 6.9851 32.5316 4.81997
1 10.2448 26.8856 4.81997
1 8.38211 28.4988 4.81997
1 11.6418 22.8528 4.81997
1 6.51942 30.1119 4.81997
1 9.77913 24.4659 4.81997
1 11.1762 31.725 4.81997
1 7.91644 26.0791 4.81997
1 9.77913 28.2299 1.60666
1 6.51942 33.8759 1.60666
1 8.38211 32.2627 1.60666
1 11.6418 26.6168 1.60666
1 7.91644 29.843 1.60666
1 11.1762 24.1971 1.60666
1 12.5732 31.4562 1.60666
1 9.31346 25.8102 1.60666
1 10.7105 33.0693 1.60666
1 7.45077 27.4233 1.60666
1 12.1075 29.0365 1.60666
1 8.84779 23.3905 1.60666
1 10.2448 30.6496 1.60666
1 6.9851 25.0036 1.60666
1 9.31346 29.5742 1.60666
1 12.5732 23.9282 1.60666
1 11.1761 27.961 1.60666
1 7.91644 33.607 1.60666
1 7.45077 31.1873 1.60666
1 10.7105 25.5413 1.60666
1 12.1075 32.8005 1.60666
1 8.84779 27.1545 1.60666
1 6.98509 28.7676 1.60666
1 10.2448 23.1216 1.60666
1 11.6418 30.3808 1.60666
1 8.38211 24.7348 1.60666
1 9.77913 31.9939 1.60666
1 6.51942 26.3479 1.60666
1 9.77913 39.5219 4.81997
1 6.51942 45.1678 4.81997
1 8.38211 43.5547 4.81997
1 11.6418 37.9087 4.81997
1 7.91644 41.135 4.81997
1 11.1762 35.489 4.81997
1 12.5732 42.7481 4.81997
1 9.31346 37.1022 4.81997
1 10.7105 44.3613 4.81997
1 7.45077 38.7153 4.81997
1 12.1075 40.3284 4.81997
1 8.84779 34.6825 4.81997
1 10.2448 41.9416 4.81997
1 6.9851 36.2956 4.81997
1 10.7105 40.5973 4.81997
1 7.45077 34.9513 4.81997
1 12.5732 38.9842 4.81997
1 9.31346 44.6301 4.81997
1 8.84779 42.2104 4.81997
1 12.1075 36.5644 4.81997
1 6.9851 43.8236 4.81997
1 10.2448 38.1776 4.81997
1 8.38211 39.7907 4.81997
1 11.6418 34.1447 4.81997
1 6.51942 41.4039 4.81997
1 9.77913 35.7579 4.81997
1 11.1762 43.017 4.81997
1 7.91644 37.371 4.81997
1 9.77913 39.5219 1.60666
1 6.51942 45.1678 1.60666
1 8.38211 43.5547 1.60666
1 11.6418 37.9087 1.60666
1 7.91644 41.135 1.60666
1 11.1762 35.489 1.60666
1 12.5732 42.7481 1.60666
1 9.31346 37.1022 1.60666
1 10.7105 44.3613 1.60666
1 7.45077 38.7153 1.60666
1 12.1075 40.3284 1.60666
1 8.84779 34.6825 1.60666
1 10.2448 41.9416 1.60666
1 6.9851 36.2956 1.60666
1 9.31346 40.8661 1.60666
1 12.5732 35.2202 1.60666
1 11.1761 39.253 1.60666
1 7.91644 44.899 1.60666
1 7.45077 42.4793 1.60666
1 10.7105 36.8333 1.60666
1 12.1075 44.0924 1.60666
1 8.84779 38.4464 1.60666
1 8.84779 38.4464 1.60666
1 6.98509 40.0596 1.60666
1 10.2448 34.4136 1.60666
1 11.6418 41.6727 1.60666
1 8.38211 36.0267 1.60666
1 9.77913 43.2859 1.60666
1 6.51942 37.6399 1.60666
1 9.77913 50.8138 4.81997
1 6.51942 56.4598 4.81997
1 8.38211 54.8467 4.81997
1 11.6418 49.2007 4.81997
1 7.91644 52.427 4.81997
1 11.1762 46.781 4.81997
1 12.5732 54.0401 4.81997
1 9.31346 48.3941 4.81997
1 10.7105 55.6532 4.81997
1 7.45077 50.0073 4.81997
1 12.1075 51.6204 4.81997
1 8.84779 45.9744 4.81997
1 10.2448 53.2335 4.81997
1 6.9851 47.5876 4.81997
1 10.7105 51.8893 4.81997
1 7.45077 46.2433 4.81997
1 12.5732 50.2761 4.81997
1 9.31346 55.9221 4.81997
1 8.84779 53.5024 4.81997
1 12.1075 47.8564 4.81997
1 6.9851 55.1155 4.81997
1 10.2448 49.4695 4.81997
1 8.38211 51.0827 4.81997
1 11.6418 45.4367 4.81997
1 6.51942 52.6958 4.81997
1 9.77913 47.0498 4.81997
1 11.1762 54.309 4.81997
1 7.91644 48.663 4.81997
1 9.77913 50.8138 1.60666
1 6.51942 56.4598 1.60666
1 8.38211 54.8467 1.60666
1 11.6418 49.2007 1.60666
1 7.91644 52.427 1.60666
1 11.1762 46.781 1.60666
1 12.5732 54.0401 1.60666
1 9.31346 48.3941 1.60666
1 10.7105 55.6532 1.60666
1 7.45077 50.0073 1.60666
1 12.1075 51.6204 1.60666
1 8.84779 45.9744 1.60666
1 10.2448 53.2335 1.60666
1 6.9851 47.5876 1.60666
1 9.31346 52.1581 1.60666
1 12.5732 46.5121 1.60666
1 11.1761 50.545 1.60666
1 7.91644 56.191 1.60666
1 7.45077 53.7712 1.60666
1 10.7105 48.1253 1.60666
1 12.1075 55.3844 1.60666
1 8.84779 49.7384 1.60666
1 6.98509 51.3515 1.60666
1 10.2448 45.7056 1.60666
1 11.6418 52.9647 1.60666
1 8.38211 47.3187 1.60666
1 9.77913 54.5778 1.60666
1 6.51942 48.9318 1.60666
1 9.77913 62.1058 4.81997
1 6.51942 67.7518 4.81997
1 8.38211 66.1386 4.81997
1 11.6418 60.4926 4.81997
1 7.91644 63.7189 4.81997
1 11.1762 58.0729 4.81997
1 12.5732 65.3321 4.81997
1 9.31346 59.6861 4.81997
1 10.7105 66.9452 4.81997
1 7.45077 61.2992 4.81997
1 12.1075 62.9124 4.81997
1 8.84779 57.2664 4.81997
1 10.2448 64.5255 4.81997
1 6.9851 58.8795 4.81997
1 10.7105 63.1812 4.81997
1 7.45077 57.5352 4.81997
1 12.5732 61.5681 4.81997
1 9.31346 67.2141 4.81997
1 8.84779 64.7944 4.81997
1 12.1075 59.1484 4.81997
1 6.9851 66.4075 4.81997
1 10.2448 60.7615 4.81997
1 8.38211 62.3746 4.81997
1 11.6418 56.7287 4.81997
1 6.51942 63.9878 4.81997
1 9.77913 58.3418 4.81997
1 11.1762 65.6009 4.81997
1 7.91644 59.9549 4.81997
1 9.77913 62.1058 1.60666
1 6.51942 67.7518 1.60666
1 8.38211 66.1386 1.60666
1 11.6418 60.4926 1.60666
1 7.91644 63.7189 1.60666
1 11.1762 58.0729 1.60666
1 12.5732 65.3321 1.60666
1 9.31346 59.6861 1.60666
1 10.7105 66.9452 1.60666
1 7.45077 61.2992 1.60666
1 12.1075 62.9124 1.60666
1 8.84779 57.2664 1.60666
1 10.2448 64.5255 1.60666
1 6.9851 58.8795 1.60666
1 9.31346 63.4501 1.60666
1 12.5732 57.8041 1.60666
1 11.1761 61.8369 1.60666
1 7.91644 67.4829 1.60666
1 7.45077 65.0632 1.60666
1 10.7105 59.4172 1.60666
1 12.1075 66.6763 1.60666
1 8.84779 61.0304 1.60666
1 6.98509 62.6435 1.60666
1 10.2448 56.9975 1.60666
1 11.6418 64.2566 1.60666
1 8.38211 58.6107 1.60666
1 9.77913 65.8698 1.60666
1 6.51942 60.2238 1.60666
1 9.77913 73.3978 4.81997
1 6.51942 79.0437 4.81997
1 11.6418 71.7846 4.81997
1 7.91644 75.0109 4.81997
1 11.1762 69.3649 4.81997
1 12.5732 76.624 4.81997
1 9.31346 70.978 4.81997
1 10.7105 78.2372 4.81997
1 7.45077 72.5912 4.81997
1 12.1075 74.2043 4.81997
1 8.84779 68.5583 4.81997
1 10.2448 75.8175 4.81997
1 6.9851 70.1715 4.81997
1 10.7105 74.4732 4.81997
1 7.45077 68.8272 4.81997
1 12.5732 72.86 4.81997
1 9.31346 78.506 4.81997
1 8.84779 76.0863 4.81997
1 12.1075 70.4403 4.81997
1 6.9851 77.6994 4.81997
1 10.2448 72.0535 4.81997
1 8.38211 73.6666 4.81997
1 11.6418 68.0206 4.81997
1 6.51942 75.2797 4.81997
1 9.77913 69.6338 4.81997
1 11.1762 76.8929 4.81997
1 7.91644 71.2469 4.81997
1 9.77913 73.3978 1.60666
1 6.51942 79.0437 1.60666
1 8.38211 77.4306 1.60666
1 11.6418 71.7846 1.60666
1 7.91644 75.0109 1.60666
1 11.1762 69.3649 1.60666
1 12.5732 76.624 1.60666
1 9.31346 70.978 1.60666
1 10.7105 78.2372 1.60666
1 7.45077 72.5912 1.60666
1 12.1075 74.2043 1.60666
1 8.84779 68.5583 1.60666
1 10.2448 75.8175 1.60666
1 6.9851 70.1715 1.60666
1 9.31346 74.742 1.60666
1 12.5732 69.096 1.60666
1 11.1761 73.1289 1.60666
1 7.91644 78.7749 1.60666
1 7.45077 76.3552 1.60666
1 10.7105 70.7092 1.60666
1 12.1075 77.9683 1.60666
1 8.84779 72.3223 1.60666
1 6.98509 73.9355 1.60666
1 10.2448 68.2895 1.60666
1 11.6418 75.5486 1.60666
1 8.38211 69.9026 1.60666
1 9.77913 77.1617 1.60666
1 6.51942 71.5158 1.60666
1 9.77913 84.6897 4.81997
1 6.51942 90.3357 4.81997
1 8.38211 88.7226 4.81997
1 11.6418 83.0766 4.81997
1 7.91644 86.3029 4.81997
1 11.1762 80.6569 4.81997
1 12.5732 87.916 4.81997
1 9.31346 82.27 4.81997
1 10.7105 89.5291 4.81997
1 7.45077 83.8831 4.81997
1 12.1075 85.4963 4.81997
1 8.84779 79.8503 4.81997
1 10.2448 87.1094 4.81997
1 6.9851 81.4634 4.81997
1 10.7105 85.7651 4.81997
1 7.45077 80.1192 4.81997
1 12.5732 84.152 4.81997
1 9.31346 89.798 4.81997
1 8.84779 87.3783 4.81997
1 12.1075 81.7323 4.81997
1 6.9851 88.9914 4.81997
1 10.2448 83.3454 4.81997
1 8.38211 84.9586 4.81997
1 11.6418 79.3126 4.81997
1 6.51942 86.5717 4.81997
1 9.77913 80.9257 4.81997
1 11.1762 88.1848 4.81997
1 7.91644 82.5389 4.81997
1 9.77913 84.6897 1.60666
1 6.51942 90.3357 1.60666
1 8.38211 88.7226 1.60666
1 11.6418 83.0766 1.60666
1 7.91644 86.3029 1.60666
1 11.1762 80.6569 1.60666
1 12.5732 87.916 1.60666
1 9.31346 82.27 1.60666
1 10.7105 89.5291 1.60666
1 7.45077 83.8831 1.60666
1 12.1075 85.4963 1.60666
1 8.84779 79.8503 1.60666
1 10.2448 87.1094 1.60666
1 6.9851 81.4634 1.60666
1 9.31346 86.034 1.60666
1 12.5732 80.388 1.60666
1 11.1761 84.4209 1.60666
1 7.91644 90.0668 1.60666
1 7.45077 87.6471 1.60666
1 10.7105 82.0011 1.60666
1 12.1075 89.2603 1.60666
1 8.84779 83.6143 1.60666
1 6.98509 85.2274 1.60666
1 10.2448 79.5814 1.60666
1 11.6418 86.8406 1.60666
1 8.38211 81.1946 1.60666
1 9.77913 88.4537 1.60666
1 6.51942 82.8077 1.60666
1 9.77913 95.9817 4.81997
1 6.51942 101.628 4.81997
1 8.38211 100.015 4.81997
1 11.6418 94.3685 4.81997
1 7.91644 97.5948 4.81997
1 11.1762 91.9488 4.81997
1 12.5732 99.2079 4.81997
1 9.31346 93.562 4.81997
1 10.7105 100.821 4.81997
1 7.45077 95.1751 4.81997
1 12.1075 96.7882 4.81997
1 8.84779 91.1423 4.81997
1 10.2448 98.4014 4.81997
1 6.9851 92.7554 4.81997
1 10.7105 97.0571 4.81997
1 7.45077 91.4111 4.81997
1 12.5732 95.444 4.81997
1 9.31346 101.09 4.81997
1 8.84779 98.6702 4.81997
1 12.1075 93.0243 4.81997
1 6.9851 100.283 4.81997
1 10.2448 94.6374 4.81997
1 8.38211 96.2505 4.81997
1 11.6418 90.6045 4.81997
1 6.51942 97.8637 4.81997
1 9.77913 92.2177 4.81997
1 11.1762 99.4768 4.81997
1 7.91644 93.8308 4.81997
1 9.77913 95.9817 1.60666
1 6.51942 101.628 1.60666
1 8.38211 100.015 1.60666
1 11.6418 94.3685 1.60666
1 7.91644 97.5948 1.60666
1 11.1762 91.9488 1.60666
1 12.5732 99.2079 1.60666
1 9.31346 93.562 1.60666
1 10.7105 100.821 1.60666
1 7.45077 95.1751 1.60666
1 12.1075 96.7882 1.60666
1 8.84779 91.1423 1.60666
1 10.2448 98.4014 1.60666
1 6.9851 92.7554 1.60666
1 9.31346 97.326 1.60666
1 12.5732 91.68 1.60666
1 11.1761 95.7128 1.60666
1 7.91644 101.359 1.60666
1 7.45077 98.9391 1.60666
1 10.7105 93.2931 1.60666
1 12.1075 100.552 1.60666
1 8.84779 94.9062 1.60666
1 6.98509 96.5194 1.60666
1 10.2448 90.8734 1.60666
1 11.6418 98.1325 1.60666
1 8.38211 92.4865 1.60666
1 9.77913 99.7457 1.60666
1 6.51942 94.0997 1.60666
1 9.77913 107.274 4.81997
1 6.51942 112.92 4.81997
1 8.38211 111.306 4.81997
1 11.6418 105.66 4.81997
1 7.91644 108.887 4.81997
1 11.1762 103.241 4.81997
1 12.5732 110.5 4.81997
1 9.31346 104.854 4.81997
1 10.7105 112.113 4.81997
1 7.45077 106.467 4.81997
1 12.1075 108.08 4.81997
1 8.84779 102.434 4.81997
1 10.2448 109.693 4.81997
1 6.9851 104.047 4.81997
1 10.7105 108.349 4.81997
1 7.45077 102.703 4.81997
1 12.5732 106.736 4.81997
1 9.31346 112.382 4.81997
1 8.84779 109.962 4.81997
1 12.1075 104.316 4.81997
1 6.9851 111.575 4.81997
1 10.2448 105.929 4.81997
1 8.38211 107.542 4.81997
1 11.6418 101.897 4.81997
1 6.51942 109.156 4.81997
1 9.77913 103.51 4.81997
1 11.1762 110.769 4.81997
1 7.91644 105.123 4.81997
1 9.77913 107.274 1.60666
1 6.51942 112.92 1.60666
1 8.38211 111.306 1.60666
1 11.6418 105.66 1.60666
1 7.91644 108.887 1.60666
1 11.1762 103.241 1.60666
1 12.5732 110.5 1.60666
1 9.31346 104.854 1.60666
1 10.7105 112.113 1.60666
1 7.45077 106.467 1.60666
1 12.1075 108.08 1.60666
1 8.84779 102.434 1.60666
1 10.2448 109.693 1.60666
1 6.9851 104.047 1.60666
1 9.31346 108.618 1.60666
1 12.5732 102.972 1.60666
1 11.1761 107.005 1.60666
1 7.91644 112.651 1.60666
1 7.45077 110.231 1.60666
1 10.7105 104.585 1.60666
1 12.1075 111.844 1.60666
1 8.84779 106.198 1.60666
1 6.98509 107.811 1.60666
1 10.2448 102.165 1.60666
1 11.6418 109.424 1.60666
1 8.38211 103.779 1.60666
1 9.77913 111.038 1.60666
1 6.51942 105.392 1.60666
1 16.2985 5.64598 4.81997
1 13.0388 11.292 4.81997
1 14.9015 9.67882 4.81997
1 18.1612 4.03284 4.81997
1 14.4359 7.25912 4.81997
1 17.6956 1.61313 4.81997
1 19.0926 8.87225 4.81997
1 15.8329 3.22627 4.81997
1 17.2299 10.4854 4.81997
1 13.9702 4.83941 4.81997
1 18.6269 6.45255 4.81997
1 15.3672 0.806567 4.81997
1 16.7642 8.06569 4.81997
1 13.5045 2.4197 4.81997
1 17.2299 6.7214 4.81997
1 13.9702 1.07542 4.81997
1 19.0926 5.10827 4.81997
1 15.8329 10.7542 4.81997
1 15.3672 8.33454 4.81997
1 18.6269 2.68856 4.81997
1 13.5045 9.94768 4.81997
1 16.7642 4.3017 4.81997
1 14.9015 5.91484 4.81997
1 18.1612 0.268855 4.81997
1 13.0388 7.52797 4.81997
1 16.2985 1.88199 4.81997
1 17.6956 9.14111 4.81997
1 14.4359 3.49513 4.81997
1 16.2985 5.64598 1.60666
1 13.0388 11.292 1.60666
1 14.9015 9.67882 1.60666
1 18.1612 4.03284 1.60666
1 14.4359 7.25912 1.60666
1 17.6956 1.61313 1.60666
1 19.0926 8.87225 1.60666
1 15.8329 3.22627 1.60666
1 17.2299 10.4854 1.60666
1 13.9702 4.83941 1.60666
1 18.6269 6.45255 1.60666
1 15.3672 0.806567 1.60666
1 16.7642 8.06569 1.60666
1 13.5045 2.4197 1.60666
1 15.8329 6.99026 1.60666