LAMMPS (16 Mar 2018)
# 3D copper block simulation
boundary     p p p
units        metal
atom_style   atomic

# geometry
read_data	 data.ABun21-11-10
  orthogonal box = (0 0 -15) to (71.7136 112.92 15.9544)
  4 by 6 by 2 MPI processor grid
  reading atoms ...
  6160 atoms

mass		*   12.0107

# EAM potential
pair_style	   lcbop
pair_coeff	* * C.lcbop C
Reading potential file C.lcbop with DATE: 2012-05-22
neighbor     2. nsq
neigh_modify every 1 delay 0 check yes

#Langevin random seed
variable     dt equal 2e-3
variable     r  equal 57085
variable     T  equal 300
variable     dT equal "v_dt * 100"

timestep ${dt}
timestep 0.002

# initialize
velocity     all create $T 28459 rot yes dist gaussian mom yes
velocity     all create 300 28459 rot yes dist gaussian mom yes
reset_timestep 0

# fixes
fix          1 all langevin $T $T ${dT} 73504 zero yes
fix          1 all langevin 300 $T ${dT} 73504 zero yes
fix          1 all langevin 300 300 ${dT} 73504 zero yes
fix          1 all langevin 300 300 0.2 73504 zero yes
fix          2 all nve
fix          3 all phonon 10 50000 1000000 map.ABGNR_11_10 Graphene nasr 50

# output
#                    1    2    3  4  5     6   7
thermo_style custom step temp pe ke press pxx pyy
thermo       100

restart      1000000 restart.one restart.two

dump   1 all xyz 50000 dump.graphene.xyz

# execution
run 	 6000000
Neighbor list info ...
  update every 1 steps, delay 0 steps, check yes
  max neighbors/atom: 2000, page size: 100000
  master list distance cutoff = 8.6
  ghost atom cutoff = 8.6
  1 neighbor lists, perpetual/occasional/extra = 1 0 0
  (1) pair lcbop, perpetual
      attributes: full, newton on, ghost
      pair build: full/nsq/ghost
      stencil: none
      bin: none
Per MPI rank memory allocation (min/avg/max) = 1.564e+04 | 1.564e+04 | 1.564e+04 Mbytes
Step Temp PotEng KinEng Press Pxx Pyy 
       0          300   -45346.534    238.83397   -2062.8151   -4376.1223   -4389.8987 
     100    240.82529   -45149.825     191.7242   -3776.2785   -5805.2921   -4662.4309 
     200    276.35305   -45121.564    220.00832    -3315.587   -5340.6771   -5054.8963 
     300    292.06246   -45117.376    232.51479   -3786.3883   -5275.4172   -5939.7939 
     400    299.78282   -45113.953    238.66107   -3883.7053   -5743.6886   -5850.9362 
     500    297.33083   -45106.046    236.70901   -3803.8251   -5705.5023    -5724.868 
     600    299.49919   -45106.537    238.43526   -3766.2331    -5502.294   -5752.8821 
     700    305.46315   -45111.847    243.18325   -3662.5859   -5484.0232   -5557.9375 
     800    301.88262   -45110.746    240.33275   -3660.8765   -5481.0529   -5363.0535 
     900    295.17488   -45111.632    234.99263     -3745.61   -5893.9287   -5346.2535 
    1000    293.75599   -45112.656    233.86303    -3691.526   -5653.3814   -5550.7068 
    1100    298.90719   -45113.072    237.96397   -3664.3724   -5434.5502   -5416.6917 
    1200    301.27741   -45107.186    239.85094    -3664.267   -5534.8418   -5627.1539 
    1300    300.79207   -45112.642    239.46455   -3802.6266   -5884.0424   -5444.2557 
    1400    301.47447   -45112.221    240.00782   -3772.2338   -5987.7957    -5444.797 
    1500    302.31001   -45112.063      240.673   -3575.8873   -5321.3183   -5544.3613 
    1600    305.78998   -45109.132    243.44345   -3714.9121    -5603.251   -5498.0793 
    1700    302.52111   -45109.524    240.84106   -3787.7567   -5778.7144   -5608.3052 
    1800     302.0537   -45106.671    240.46895   -3870.3323   -5623.5773   -5848.9255 
    1900    296.72787   -45107.408    236.22899   -3689.6327   -5683.9178   -5403.8228 
    2000    304.69079    -45110.74    242.56837   -3851.4458   -5676.2436   -5790.3396 
    2100    302.96227   -45111.305    241.19227   -3890.1219   -5648.6215   -6031.1893 
    2200    305.05998   -45111.058    242.86229   -3922.7045   -5821.5082    -5990.525 
    2300    303.28238   -45112.248    241.44712   -4059.6376   -5894.8357   -6244.3425 
    2400    304.78124   -45110.379    242.64038   -3695.2818   -5314.4739   -5813.3917 
    2500     301.5791   -45109.219    240.09112   -3688.2915   -5286.9826   -5774.1343 
    2600    303.73151   -45110.486    241.80467   -3819.7265   -5633.7756   -5730.5996 
    2700      300.517   -45106.435    239.24556   -3730.7469   -5872.2702   -5348.3708 
    2800    302.37155   -45111.296    240.72199   -3699.1393   -5454.5965   -5621.5045 
    2900    298.71522   -45110.429    237.81114   -3798.1823   -5851.0956   -5526.3615 
    3000    296.88514   -45111.827    236.35419   -3941.1244   -5733.3663   -5937.4512 
    3100    297.36966   -45108.851    236.73992   -4011.1058   -5599.3385   -6437.9257 
    3200    295.74019    -45107.06    235.44268   -3892.4206   -5451.1427    -6104.796 
    3300    299.53621   -45107.834    238.46474   -3886.9589   -5410.6058   -6282.0038 
    3400    298.61352   -45109.188    237.73018   -3879.7691   -5558.2269   -6117.8405 
    3500    299.68338   -45107.583    238.58191   -3808.2435   -5555.5755   -5847.1983 
    3600     296.4429   -45108.838    236.00212   -3861.7377   -5968.8461   -5655.1518 
    3700    297.34004   -45108.557    236.71634   -3907.8112   -5820.0635    -5926.929 
    3800     295.8595   -45105.427    235.53766   -3903.5381   -5967.6861   -5623.6731 
    3900    305.26427   -45110.359    243.02492   -4046.6017   -6149.1952    -6000.705 
    4000    300.80342   -45110.819    239.47358   -3843.4576   -5589.8606   -5898.2387 
    4100    299.05244   -45110.117    238.07961   -3744.9065   -5805.8154   -5460.7632 
    4200     296.4611   -45110.891     236.0166     -3745.52   -5987.0199   -5192.0918 
    4300     301.2894   -45108.494    239.86048   -3719.4639   -5856.4298   -5394.8328 
    4400    303.15281   -45112.545    241.34396   -3898.2323   -5916.9913   -5680.4161 
    4500    300.20252   -45110.705     238.9952   -3657.6363   -5649.7989   -5297.1562 
    4600    305.39317   -45111.034    243.12755    -3673.875   -5489.9328   -5521.6806 
    4700    298.96242   -45110.506    238.00794   -3724.7109   -5530.5562   -5575.0873 
    4800    307.57792    -45110.15    244.86686   -3755.5755    -5712.778   -5659.5634 
    4900    304.26518   -45108.468    242.22954   -3785.2763   -5325.6663   -5888.2522 
    5000    298.41505   -45109.409    237.57217   -3670.2969    -5716.949    -5337.719 
    5100    302.66196    -45107.45    240.95319   -3727.1997   -5639.5315   -5530.4759 
    5200    298.50346   -45106.768    237.64255   -3796.8481   -5937.2898   -5448.7738 
    5300    301.22827   -45105.596    239.81181   -3834.1668   -5812.4957   -5591.5995 
    5400    303.63288   -45111.232    241.72616   -3652.8638   -5763.9009    -5273.326 
    5500    301.07111   -45109.713     239.6867   -3888.2788   -6050.1049   -5608.3271 
    5600    297.06319   -45112.001    236.49594   -3864.3328   -6037.4776   -5511.6628 
    5700    300.56973   -45108.404    239.28754   -4053.7877   -6100.0242   -5898.8554 
    5800    302.68713   -45110.293    240.97323    -3857.677   -5947.2417   -5737.6926 
    5900    300.62425   -45106.887    239.33094   -3978.3346   -5710.5684   -6119.1544 
    6000    295.07415   -45107.005    234.91244   -3957.5134   -5931.3058   -5851.7287 
    6100    300.72148   -45110.434    239.40835   -3813.3379   -6002.9071   -5407.2598 
    6200    298.94094   -45111.911    237.99083   -3919.4379   -6301.1986   -5503.5732 
    6300     294.5156   -45109.414    234.46777   -3978.7893    -5780.155   -6042.6092 
    6400    295.84922   -45110.426    235.52948   -3840.7863   -5447.0016   -6048.3259 
    6500    297.07381   -45109.081     236.5044   -4053.1631   -5659.5776    -6393.245 
    6600    298.05993   -45112.011    237.28946   -3848.0448   -5597.5666   -6026.5268 
    6700    296.10291   -45106.914    235.73144   -3897.6404   -5768.6412   -5759.4642 
    6800    303.64699   -45109.219    241.73739    -3642.497   -5193.3454   -5853.7881 
    6900    298.63053   -45102.863    237.74372   -3892.8294    -5630.949   -5937.6634 
    7000    298.24932   -45107.634    237.44023   -3722.0576   -5074.4296    -6063.406 
    7100     299.8268   -45109.908    238.69609   -3679.0221   -5671.8527   -5323.0109 
    7200    294.53643   -45109.464    234.48435   -3796.2384   -5671.1902   -5682.5398 
    7300    297.12424    -45113.48    236.54454   -3613.6191   -5348.6266   -5613.7406 
    7400    299.28896   -45110.048     238.2679   -3749.8546   -5404.5258    -5797.334 
    7500    303.41718   -45108.958    241.55443   -3865.8639   -5779.2013   -5734.3465 
    7600     298.4839   -45110.415    237.62698   -3732.0483   -5659.1775   -5663.0648 
    7700    303.01422   -45107.989    241.23363   -3806.4099   -5270.1832   -6053.3058 
    7800    297.98968   -45107.751    237.23352   -3983.8163   -5953.6554    -6039.179 
    7900    302.11304   -45106.865    240.51619   -3786.7741   -5329.8037   -5913.0197 
    8000    297.01156   -45103.359    236.45483   -3801.1294   -5449.2448   -5928.2705 
    8100    301.09046   -45107.591     239.7021   -3772.1464   -5790.6044   -5490.9697 
    8200      299.948   -45107.871    238.79257   -3888.7631   -5845.8737   -5837.1949 
    8300    301.82837   -45109.981    240.28956   -3731.7544   -5817.0757   -5387.8415 
    8400    298.39236   -45109.539    237.55411   -3879.0146   -6050.7816   -5480.1057 
    8500    293.62549   -45105.729    233.75914   -3678.6231    -5795.064   -5414.0039 
    8600    297.70183   -45108.902    237.00437   -3772.0684   -5436.0307   -5786.0846 
    8700    298.54819   -45113.521    237.67817   -3849.5121   -5929.7052   -5725.1976 
    8800    299.60386   -45111.819    238.51859   -3899.7961   -5915.4889   -5618.0643 
    8900     296.2309   -45105.365    235.83334   -3707.6417   -5687.0437   -5411.7616 
    9000    299.45292   -45110.868    238.39843   -3730.9097     -5485.89    -5720.773 
    9100    297.99472    -45107.87    237.23754   -3814.3891   -5706.7835   -5692.2582 
    9200    294.98962   -45110.805    234.84514   -3784.7609   -5451.7958   -6055.4419 
    9300    296.35227   -45110.386    235.92996   -3892.3132   -5642.8706   -5911.6131 
    9400    298.79635   -45112.447    237.87573   -3891.0557   -5447.6201   -6188.8088 
    9500    305.43377   -45109.088    243.15987   -3638.5004   -5259.4638   -5802.4719 
    9600    302.41968   -45106.564    240.76031    -3714.018    -5489.384   -5656.8416 
    9700    303.82916   -45112.462    241.88241   -3587.5306   -5578.5327   -5192.0821 
    9800     296.8417    -45105.87    236.31961   -3585.6838   -5320.2941   -5510.2845 
    9900    302.69602   -45110.406    240.98031   -3742.1429   -5863.5504   -5324.6692 
   10000    296.51863   -45107.737    236.06241   -3715.4823    -5597.489    -5529.883 
   10100     301.8458   -45112.173    240.30344   -3647.0831   -5175.9217   -5805.3989 
   10200    298.33895   -45107.685    237.51158   -3922.1626   -5803.7477   -5808.5135 
   10300    302.38982   -45110.931    240.73654   -3766.5874   -5603.5976    -5899.231 
   10400    302.14947   -45106.869    240.54519   -3862.7019   -5879.0603   -5568.2142 
   10500    302.41002   -45114.365    240.75262   -3874.3431   -6083.9047   -5652.0648 
   10600     294.7426    -45106.91    234.64849    -4000.942   -5894.5211   -6027.7057 
   10700    294.69821   -45102.658    234.61315   -3856.3693   -5954.5595   -5564.2125 
   10800    302.50784   -45105.914     240.8305   -3962.7453    -5990.258    -5784.974 
   10900    300.88779   -45111.769    239.54075   -3957.0086   -6161.1625   -5776.8262 
   11000    295.63578   -45107.333    235.35955   -3795.2199   -5735.5865    -5665.017 
   11100    297.20624   -45110.646    236.60982   -3789.1624   -5406.3939   -5950.8035 
   11200    305.04795   -45109.279    242.85271   -3738.8396   -5759.2845   -5436.6832 
   11300    300.49308   -45107.606    239.22652   -3855.2719   -6383.3698   -5217.5185 
   11400    298.79322   -45110.707    237.87324   -3815.3652   -6288.3257   -5188.4006 
   11500    299.73711   -45110.466    238.62468   -3892.8315   -6269.1589   -5368.8898 
   11600    300.26671   -45109.784     239.0463   -3738.4164   -6005.5282   -5327.1431 
   11700    304.71791   -45112.467    242.58996   -3938.8574   -5999.2075   -5679.2611 
   11800    300.41895   -45109.979     239.1675   -4028.0954   -5838.8926   -6221.8087 
   11900     300.8286   -45110.972    239.49363   -3863.1929   -5907.4518   -5699.8374 
   12000    297.72847   -45110.523    237.02557   -3735.8082   -5633.0992   -5601.6938 
   12100    301.36901    -45109.06    239.92386   -3859.1407   -5936.3258   -5694.4013 
   12200    299.47445   -45106.991    238.41557   -3753.2349   -5712.9292   -5572.0021 
   12300    304.77244   -45109.885    242.63337   -3866.7544   -6342.1883   -5320.0666 
   12400    303.23519   -45111.925    241.40954   -3888.2439   -5594.6604   -6073.4172 
   12500    296.32514   -45105.949    235.90836   -3808.5095   -5987.3312   -5442.7215 
   12600    297.86022   -45114.105    237.13046    -3679.667   -5787.3379   -5359.2617 
   12700    297.15429   -45109.383    236.56846   -3793.6549   -5730.0874    -5592.874 
   12800    299.01928   -45111.079     238.0532   -3835.8877   -5685.1524   -5865.4082 
   12900    299.78669   -45106.453    238.66415   -3924.0972   -5494.5945   -6156.2746 
   13000     304.8133   -45110.466     242.6659   -3927.9909   -5820.7509   -5987.9793 
   13100    304.70814   -45103.698    242.58218   -4029.8821   -6164.3953   -5879.5384 
   13200    305.65424   -45106.885    243.33538   -3773.5595   -6002.5872   -5336.8125 
   13300    299.67619   -45109.839    238.57618   -3780.0304   -5703.6697   -5601.9323 
   13400    296.51254   -45112.703    236.05755   -3834.9984   -5726.3658    -5856.441 
   13500    301.68938   -45111.344    240.17891   -4016.2702   -6022.6198   -5980.7972 
   13600    299.88059   -45108.503    238.73891   -3799.5201   -5840.3094   -5706.7128 
   13700    305.45331   -45110.541    243.17542   -3810.2746   -5752.3277    -5680.576 
   13800    300.18464   -45105.962    238.98096   -3886.2197   -6112.6057   -5563.7417 
   13900    299.79782   -45110.537    238.67301   -3922.2836    -5955.231   -5818.4681 
   14000    293.55809   -45109.656    233.70548   -3855.4962   -5784.6515   -5763.3596 
   14100    300.03285   -45110.977    238.86013   -4019.5937    -6203.963   -5705.9152 
   14200    295.21843   -45111.825     235.0273     -4187.38   -6219.4741   -6329.7954 
   14300    297.39101   -45110.926    236.75692   -4058.9864   -6277.3264   -5907.2943 
   14400    303.11207   -45109.569    241.31153   -3957.7653   -5689.9473   -6185.2931 
   14500    301.53494   -45106.438    240.05596   -4110.4612   -6143.9662   -6049.0524 
   14600    308.28665   -45109.556    245.43108   -3861.8687   -5836.4415    -5768.863 
   14700    298.03824    -45106.32    237.27219   -3870.7911   -5938.6525   -5626.5849 
   14800    301.77749   -45101.709    240.24905   -3735.4626   -5751.9027   -5440.2054 
   14900    301.79444    -45110.33    240.26255   -3829.6378   -5738.1106   -5750.1833 
   15000    301.46089   -45107.063    239.99701   -3759.3379   -5735.2305   -5552.7903 
   15100    298.33605   -45106.272    237.50928   -3543.7895   -5453.7113   -5300.1102 
   15200    304.42124   -45109.733    242.35377   -3663.7933   -5600.1761   -5350.0489 
   15300    295.61315   -45105.602    235.34154   -3805.3746   -5715.8674   -5658.3747 
   15400    299.56174   -45109.528    238.48506   -3730.2512   -5714.0904   -5439.0455 
   15500    299.22059   -45109.964    238.21347   -3754.8623   -5441.7931   -5712.9315 
   15600    299.21642   -45109.777    238.21015   -3771.9124   -5730.6538   -5681.5384 
   15700    298.75134   -45105.784    237.83989   -3834.7669   -5807.3913   -5591.9979 
   15800    305.47556   -45110.954    243.19314    -3704.416   -5747.1875   -5436.6571 
   15900    302.34677   -45112.348    240.70226   -3633.4401   -5569.5701   -5275.2744 
   16000    301.22286   -45103.199     239.8075   -3834.9376   -5888.4254   -5614.2467 
   16100    300.99375   -45105.354    239.62511   -3778.0312   -5585.9368   -5759.6194 
   16200    297.98473   -45109.965    237.22959    -3664.452   -5566.2179   -5334.6417 
   16300    296.45977   -45109.816    236.01554   -3929.6572   -5955.3058    -5729.769 
   16400    289.82403   -45109.351    230.73274   -3739.3487   -5582.8497   -5621.1506 
   16500    303.66414   -45106.683    241.75104   -3642.1944   -5285.0011   -5676.7368 
   16600    300.51027   -45107.005     239.2402    -3641.078   -5451.8787    -5527.986 
   16700    303.68532   -45107.681     241.7679   -3662.0232   -5646.9452   -5397.9707 
   16800    297.33273   -45106.677    236.71052     -3872.85   -6016.2228    -5426.244 
   16900    295.14962   -45105.872    234.97252   -3679.9018   -5659.2505   -5338.5999 
   17000    300.89237   -45113.291     239.5444   -3758.0833   -5527.2472    -5761.182 
   17100    292.86983   -45103.392    233.15754   -3963.7583   -5984.2989   -5886.2489 
   17200    304.17887   -45111.536    242.16082   -3669.9616   -5650.5556   -5445.9101 
   17300    297.38615   -45106.924    236.75305   -3707.8871   -5615.1564   -5463.9581 
   17400    300.12775   -45102.042    238.93568   -3825.1901   -5628.8503   -5745.7078 
   17500    301.89707   -45107.646    240.34425   -3852.8176   -5731.6287   -5805.1995 
   17600    298.75738   -45109.745     237.8447   -3794.4923   -5703.9362   -5612.9026 
   17700    302.36287   -45108.222    240.71508   -3655.8512   -5669.5171   -5376.2009 
   17800     300.5729    -45111.95    239.29006   -3812.7869   -5894.3203   -5419.0921 
   17900    294.45693   -45114.368    234.42106   -3671.2649   -5553.5715   -5517.5215 
   18000    298.92756   -45111.366    237.98018   -3792.6959   -5748.2196    -5658.692 
   18100    300.76919   -45109.067    239.44634    -3760.364    -5840.752   -5397.1426 
   18200    298.30813   -45107.622    237.48705    -3850.166   -5897.0686   -5661.8089 
   18300    300.00002   -45110.946    238.83399   -3903.4342    -6126.066   -5586.7902 
   18400    303.30733   -45111.506    241.46698   -3668.4385   -5421.8422   -5510.1636 
   18500    301.84871   -45108.512    240.30575   -3642.9791   -5203.7747   -5702.2171 
   18600    302.45152   -45102.901    240.78565   -3744.5123   -5525.3989   -5532.2853 
   18700    305.24661   -45111.821    243.01086   -3728.5221    -5838.248   -5480.9538 
   18800    303.24028   -45110.537     241.4136   -3903.3368   -5562.1071   -6049.3647 
   18900    304.29408   -45103.042    242.25254   -3782.6259   -5356.1317   -6066.3989 
   19000    307.82269   -45106.532    245.06172   -3740.0062   -5292.9699   -5858.5067 
   19100    302.17771   -45109.316    240.56767   -3722.1937   -5460.2446   -5799.8022 
   19200    300.39577   -45107.977    239.14905   -3895.2967   -5973.3837   -5632.6794 
   19300    302.81832    -45105.63    241.07768   -4027.6331   -6087.9752   -5911.1337 
   19400    304.58785   -45110.437    242.48642   -3673.5298   -5470.6107   -5631.2657 
   19500    304.77826   -45105.433      242.638    -3785.184   -5775.1113   -5546.9622 
   19600    299.65775    -45108.13     238.5615    -3829.252   -6087.3325   -5375.0068 
   19700    301.13116    -45107.22     239.7345    -3823.663    -5873.757   -5592.6015 
   19800    304.38489   -45108.145    242.32484   -3712.9388    -5704.389   -5404.5629 
   19900    302.08841   -45110.616    240.49658   -3705.3676    -5394.143   -5775.7231 
   20000     299.3008   -45106.167    238.27733   -3728.5522   -5682.5007    -5530.163 
   20100    299.06819   -45100.805    238.09214   -3801.5585   -5625.3649   -5712.0136 
   20200    296.61542   -45110.967    236.13946   -3935.9282   -6022.3696   -5883.3051 
   20300    301.85438    -45109.17    240.31026    -3911.382   -5897.2202   -5781.8235 
   20400     301.9711   -45101.621    240.40319   -3778.2259   -5933.4522   -5484.7653 
   20500    300.28869   -45109.456     239.0638   -3863.0194   -5975.2633   -5632.4857 
   20600    299.95625   -45110.447    238.79914   -3880.6214   -5902.9118   -5696.0423 
   20700    303.78375   -45108.911    241.84626   -3911.9494   -5871.5221   -5941.0159 
   20800    309.65757   -45107.408    246.52249   -3767.2719   -6121.3035   -5152.0954 
   20900    296.33818   -45105.976    235.91875   -3921.3986   -6189.3205   -5475.5403 
   21000    300.00118   -45110.831    238.83491   -3834.6242   -6087.2689   -5379.2307 
   21100    300.95337   -45108.986    239.59296   -3809.2695   -5902.2874   -5569.6824 
   21200    305.69506   -45108.567    243.36788   -3839.7767   -5751.6643   -5724.4939 
   21300    303.12408   -45105.083    241.32109   -3779.1591   -5692.4959   -5597.0107 
   21400    302.65633   -45114.099    240.94871   -3715.5073    -5631.825   -5517.5262 
   21500    305.37339   -45105.604     243.1118   -3754.8999   -5560.4592   -5743.7433 
   21600    301.87544   -45107.035    240.32703   -3632.4379   -5265.7418   -5640.1329 
   21700     295.1361   -45106.679    234.96175   -3771.4404   -5758.4374   -5587.6777 
   21800    302.36276   -45109.732      240.715   -3830.2207   -5497.7414   -5922.1429 
   21900    303.47926   -45106.196    241.60386   -3744.7581   -5190.2531    -6015.771 
   22000    299.72277   -45109.166    238.61327   -3783.6734   -5664.6383   -5750.7768 
   22100    295.71461   -45110.638    235.42232   -3720.9548   -5686.4422    -5489.692 
   22200    294.31238   -45109.475    234.30598   -3943.2137   -5623.7931   -6167.0996 
   22300    297.66848   -45108.924    236.97782   -3849.7648   -5831.8098   -5677.7836 
   22400    294.97833   -45106.505    234.83615   -3816.3473    -5588.143   -5782.7226 
   22500    295.55959   -45112.582     235.2989   -3808.2823   -5903.0742    -5506.766 
   22600    300.54931   -45111.136    239.27128   -3646.4037    -5798.938   -5304.4096 
   22700    297.83901   -45109.433    237.11358   -3855.1612   -5769.7206   -5717.2287 
   22800    303.14688   -45108.836    241.33925   -3811.9282   -5633.9118   -5801.0291 
   22900    298.78149   -45109.895     237.8639   -3869.3843   -5806.9181   -5726.8807 
   23000    297.59614   -45106.689    236.92022    -3879.523   -5981.5558   -5557.6575 
   23100    304.13518   -45108.905    242.12604   -3824.3094   -5920.4332   -5553.9519 
   23200    302.89809   -45111.106    241.14118   -3972.5753   -6037.2877   -5947.4198 
   23300    296.99389   -45110.958    236.44077   -3800.7147   -5656.4781   -5666.4091 
   23400    304.58582   -45108.895     242.4848    -3913.869   -6073.4702   -5730.3173 
   23500    295.05198   -45111.781    234.89479   -3830.5965   -6001.4567   -5378.5868 
   23600     300.3838   -45107.735    239.13952   -3856.6237   -6067.2733   -5596.5434 
   23700    304.73142   -45111.494    242.60072   -3895.2961   -5631.9772   -6025.7499 
   23800    300.01707   -45106.777    238.84756   -3778.7041     -5821.77   -5438.5704 
   23900    301.27651   -45109.467    239.85021   -3835.8353   -5889.4146   -5592.0565 
   24000    299.58497   -45109.513    238.50356   -3679.8073   -5586.8681   -5460.2775 
   24100    296.24613   -45110.694    235.84546   -3827.8568   -5614.2836   -5896.6548 
   24200    299.07868   -45107.044     238.1005   -3987.7219   -6203.9456    -5746.183 
   24300     303.7737   -45110.609    241.83826   -3705.5843    -5716.599   -5467.7043 
   24400    298.21003   -45105.415    237.40895   -3868.7663   -5653.1821    -5886.351 
   24500    301.85973   -45108.683    240.31453   -3742.6593   -5708.9311   -5617.0062 
   24600    301.59828   -45108.778    240.10638   -3690.3137   -5462.6425   -5580.1461 
   24700    303.09873   -45111.885    241.30091   -3661.0094   -5412.3017   -5554.6576 
   24800    295.35992   -45111.846    235.13994   -3680.5424   -5515.9002   -5503.9942 
   24900    292.63305   -45113.741    232.96904   -3658.9745    -5341.868   -5652.7822 
   25000    297.61542   -45111.273    236.93558   -3844.7603   -5706.8364    -5735.503 
   25100    301.14438   -45113.143    239.74503   -3849.6344   -5562.1855   -5949.0252 
   25200    300.15878   -45113.067    238.96038   -3676.6201   -5405.1272   -5670.5718 
   25300    300.87366   -45111.374     239.5295   -3702.4758   -5765.3573   -5344.6931 
   25400    306.27708   -45107.887    243.83124    -3816.819   -5839.9406   -5618.0934 
   25500      302.951    -45109.11     241.1833   -3638.4251    -5502.952   -5505.9477 
   25600    300.11101   -45108.888    238.92235   -3669.1127   -5241.5918   -5678.8755 
   25700     298.5294   -45110.506    237.66321   -3778.8027   -5690.7898    -5765.213 
   25800    296.89571   -45106.872     236.3626   -4007.7878   -6432.4352   -5583.6904 
   25900    299.56109   -45110.848    238.48455   -3815.2811   -5785.9267   -5699.8574 
   26000    300.91111   -45104.913    239.55932   -3690.5356   -5021.6188   -6130.9553 
   26100    296.76593   -45106.584    236.25929   -3967.8923   -6019.4359   -5739.3142 
   26200    298.93817   -45111.491    237.98864    -3776.781   -6014.6016   -5384.9548 
   26300    302.95049   -45111.637     241.1829   -3933.7422    -5918.016   -5896.8335 
   26400    302.26954   -45107.382    240.64078   -3779.6768   -5455.5252   -5825.5896 
   26500    306.13399   -45105.317    243.71732   -3751.0057   -5669.9225   -5661.2366 
   26600    303.27355   -45110.663    241.44008   -3729.4979   -5515.8646   -5631.8988 
   26700    305.41324   -45103.449    243.14352   -3667.9566   -5630.3546   -5572.0812 
   26800    308.30055   -45106.883    245.44215   -3791.4628   -5545.6938   -5737.8622 
   26900    299.24442   -45105.693    238.23244   -3873.2997   -5560.7093   -5925.9876 
   27000    303.44398   -45102.512    241.57577   -3732.3236   -5692.6601   -5518.2254 
   27100    298.72557   -45102.813    237.81938   -3771.6061   -5642.0403   -5632.6661 
   27200    307.02278   -45111.947    244.42489   -4083.4055   -6220.9451   -5920.3492 
   27300     300.4217   -45105.989    239.16969   -3833.3079   -6104.1826   -5459.8754 
   27400    291.01224   -45107.596     231.6787   -3928.9365   -5725.0836   -5943.9541 
   27500    296.36337   -45107.937     235.9388   -3612.0869   -5503.3608   -5353.4238 
   27600    298.43354   -45110.981    237.58689   -3810.9552   -5776.2542   -5625.4616 
   27700    298.15289   -45111.349    237.36346   -3805.8057   -5747.8885    -5678.142 
   27800    301.99204   -45109.833    240.41986   -3529.3184   -5044.7069   -5619.8032 
   27900    303.04257   -45105.959     241.2562   -3829.3519   -5615.9657   -5829.4041 
   28000    294.86053   -45102.096    234.74237   -3747.0047   -5537.6241   -5826.8414 
   28100    295.79013   -45109.612    235.48244   -3814.7859   -5595.6777   -5795.2676 
   28200    298.93062   -45106.123    237.98262     -3881.97   -5841.0294   -5709.9569 
   28300    302.05437   -45109.786    240.46948   -3796.4351   -5583.5762   -5821.0157 
   28400    293.47983   -45108.259    233.64318   -3815.4788    -5597.227   -5851.0316 
   28500     298.0811   -45109.597    237.30631    -3763.546   -5671.3445   -5643.6997 
   28600    301.89404    -45106.68    240.34184   -3514.0049   -5203.0224    -5372.076 
   28700    301.60205   -45109.005    240.10938   -3741.4192   -5284.5505   -5946.0244 
   28800    301.00596   -45108.245    239.63483   -3667.1531   -5272.5431   -5766.3518 
   28900    304.48266   -45108.044    242.40267   -3777.5246   -5422.3461   -5999.1131 
   29000    302.93389   -45107.097    241.16968   -3890.0835   -5648.4825   -5829.5956 
   29100    299.15334    -45107.71    238.15993   -3831.8656   -5469.0532   -6030.2995 
   29200    300.44708   -45105.107     239.1899   -3938.4404   -5814.7344    -5983.609 
   29300    300.36926   -45108.827    239.12794    -3903.753   -6108.0244   -5504.9352 
   29400    305.69354   -45106.205    243.36668   -3832.1959    -5884.845   -5597.2234 
   29500    301.18733   -45109.726    239.77922   -3608.1836   -5682.9235   -5191.1008 
   29600    297.91843   -45109.613     237.1768   -3872.0503   -6072.9509   -5447.9684 
   29700    297.58929     -45114.7    236.91477    -3901.863   -6307.0303   -5503.4803 
   29800    302.44524   -45112.344    240.78066   -3872.8147   -6042.0648   -5663.7276 
   29900    292.51958   -45107.741    232.87871   -3820.5534   -6049.6264   -5434.2012 
   30000     299.4032   -45111.531    238.35885   -3860.3979   -5491.7552   -6001.7104 
   30100    296.95484   -45109.295    236.40968   -3853.8925   -5478.4231   -6109.1472 
   30200    299.16875   -45108.409     238.1722   -3827.4719   -5509.4384   -6005.0939 
   30300    300.89703   -45106.103    239.54811   -3769.4389   -5497.8093   -5816.4888 
   30400    299.11625   -45108.825     238.1304   -3729.4522   -5199.8301   -5938.1081 
   30500    300.10256   -45108.475    238.91562   -3588.9541   -5281.7485   -5492.4523 
   30600    297.69439   -45108.888    236.99845   -3730.2718   -5316.0994   -5707.9399 
   30700    299.17346   -45109.145    238.17595   -3768.4023   -5753.6152    -5546.781 
   30800    302.14653   -45108.508    240.54285   -3658.7335   -5825.9321   -5194.3029 
   30900    298.51561   -45106.514    237.65223   -3739.6162   -5577.0352   -5641.7822 
   31000    304.34024   -45105.304    242.28929   -3880.6678   -5595.0704   -5927.2566 
   31100    299.99109   -45104.912    238.82688   -3726.3354   -5386.5547   -5943.8704 
   31200    298.95465   -45107.507    238.00175   -3734.3615   -5702.4422   -5383.6302 
   31300     302.4002   -45111.428     240.7448   -3810.6168    -5763.617   -5640.6137 
   31400    300.58907    -45108.96    239.30293    -4045.311    -6176.432   -5812.5611 
   31500    296.27553   -45109.235    235.86887   -3790.6419   -5730.8178   -5728.6031 
   31600    297.63242   -45110.709    236.94911   -3942.5361   -5503.1118   -6239.5247 
   31700    303.42721   -45110.226    241.56241   -3821.2693   -5696.5038   -5898.2991 
   31800    300.84902   -45110.468    239.50988   -4027.5387   -5911.0114   -6055.0822 
   31900    297.75683   -45107.562    237.04815   -3829.7654   -5970.9007   -5619.3226 
   32000     301.5103   -45111.656    240.03634   -3790.4244    -4909.686   -6362.4296 
   32100    301.13732   -45107.924    239.73941    -3787.087    -5387.992   -5979.8191 
   32200    306.56187    -45103.93    244.05796   -3811.6364   -5970.5251   -5470.8366 
   32300    301.67203   -45110.154     240.1651   -3807.8712   -5799.4439   -5679.5123 
   32400    294.38376   -45108.245    234.36281   -3975.5495   -5856.7651   -5947.3832 
   32500    299.65633   -45109.218    238.56037   -3716.2919   -5690.5382   -5475.5437 
   32600    299.54243   -45110.878    238.46969   -3785.8828   -5320.5415   -6026.2265 
   32700    296.92406   -45109.189    236.38518   -3738.0881   -5545.0699   -5709.1236 
   32800    301.07612   -45110.657    239.69068   -3720.0376   -5884.3072   -5231.4326 
   32900    295.66332   -45108.648    235.38149   -3919.6748   -5897.0194   -5874.5904 
   33000    297.96198   -45105.239    237.21148   -3904.1274   -6008.6283   -5722.2633 
   33100    294.72845   -45106.695    234.63722   -3920.8547   -5945.9188   -5755.3997 
   33200    294.99993    -45106.48    234.85335    -3762.302   -5503.9228   -5688.8901 
   33300     300.9095   -45111.181    239.55803   -3819.6488   -5831.4847   -5684.6053 
   33400     298.4188   -45116.002    237.57516   -3921.1568   -5728.3885   -6010.0995 
   33500    297.04093   -45109.888    236.47822   -3748.2711   -5463.3354   -5734.6885 
   33600    298.87571   -45108.286    237.93891   -3584.1992   -5149.4334    -5706.659 
   33700    299.49552   -45108.652    238.43235   -3803.0258   -5402.9534   -5897.4262 
   33800     304.0053   -45110.658    242.02265   -3932.1848   -5997.7802   -5924.4756 
   33900    299.63108   -45107.316    238.54027   -3744.1896    -5481.489   -5826.6041 
   34000    302.20168   -45109.023    240.58675   -3760.8866   -5533.7729   -5648.9638 
   34100    300.73567   -45104.353    239.41964   -3719.1975   -5544.1157   -5592.3182 
   34200    302.15335   -45112.615    240.54828   -3769.4823   -5522.5401   -5785.4272 
   34300    293.16084   -45109.022    233.38922   -3647.1814   -5632.8106   -5221.0547 
   34400    298.37927   -45111.192    237.54369   -3820.3196   -5828.9776    -5603.909 
   34500    293.25273   -45107.738    233.46238   -3926.6642   -6001.8376   -5700.8792 
   34600    303.16992   -45109.194    241.35759   -3773.5421   -5649.6656   -5741.1716 
   34700    295.53816   -45106.421    235.28184   -4064.5496   -6011.4434   -6084.2163 
   34800    296.99903   -45105.205    236.44486   -3860.0578   -5543.6079   -6022.6136 
   34900    301.49659   -45112.103    240.02543   -3922.3174   -5687.8367   -6089.1006 
   35000    300.08301   -45109.067    238.90006   -3957.6373   -5972.9736   -5851.5328 
   35100    299.87048   -45113.152    238.73086   -3922.6786   -6003.7987   -5840.3314 
   35200    300.07562   -45112.927    238.89417   -3777.8704   -5476.1791   -5854.6103 
   35300    298.99155   -45111.971    238.03113   -3722.8349   -5594.0489   -5529.1176 
   35400    297.08998   -45110.232    236.51726   -3814.7097    -5587.388   -5908.8344 
   35500    298.99082   -45107.443    238.03055   -3802.6937   -5880.8181   -5581.8888 
   35600    309.42999   -45105.778    246.34131    -3898.236    -6183.889   -5596.4147 
   35700    302.75471   -45106.781    241.02703   -3720.0764   -5784.2906   -5351.1623 
   35800    296.23497    -45108.73    235.83658   -4023.3245   -6041.9532   -5876.1419 
   35900    301.24452   -45102.636    239.82475   -3873.6818   -5970.5133   -5768.9736 
   36000    304.80119   -45106.205    242.65626   -3794.8692   -5472.1803    -5842.998 
   36100    299.39826   -45109.277    238.35491   -3860.7937   -5918.5532   -5678.3385 
   36200    302.81067   -45111.066    241.07158   -3943.1853   -5908.4907   -5864.8154 
   36300    303.05058   -45112.491    241.26258    -3856.358   -5908.7141   -5672.4308 
   36400    292.02472   -45113.664    232.48474   -3648.6216   -5339.1182   -5669.5576 
   36500    303.11546   -45112.327    241.31423   -3793.7752   -5389.2247   -5987.0529 
   36600    297.27354   -45110.309     236.6634   -3767.7474   -5437.7262    -5880.795 
   36700    302.31422   -45109.265    240.67635   -3726.1098    -5567.502   -5552.3485 
   36800    301.58666   -45111.956    240.09713   -3740.4303   -5471.7314   -5744.7413 
   36900    297.79778   -45106.246    237.08075   -3759.8445   -5155.4062   -6050.6184 
   37000    299.35282   -45109.238    238.31875   -3713.8833   -5818.0646   -5461.0004 
   37100    298.18817    -45105.93    237.39155   -3760.7099   -5821.2806   -5332.7426 
   37200    303.95764    -45112.17     241.9847    -3580.046    -5398.851   -5448.2227 
   37300    303.25144   -45108.459    241.42249   -3792.6257   -5800.5816   -5564.5163 
   37400    299.21924   -45113.593    238.21239   -3651.4894   -5629.4319   -5355.8142 
   37500    303.19801    -45111.75    241.37995   -3635.6368   -5446.6321   -5493.7714 
   37600    298.22269   -45107.923    237.41903   -3665.5211   -5457.5355   -5490.5309 
   37700    296.90343   -45114.275    236.36875   -3624.7943   -5419.1306    -5543.976 
   37800    302.25927   -45106.058    240.63261   -3742.5313   -5552.6344   -5580.1989 
   37900    302.04808   -45110.251    240.46447   -3793.4151   -5399.8335   -6058.5178 
   38000    297.61855   -45108.705    236.93807   -3952.4585   -5373.5175   -6403.2558 
   38100    303.15145   -45115.347    241.34288   -3674.9841    -5416.837    -5599.296 
   38200    302.70586   -45111.913    240.98814   -3969.5237   -5964.0634   -5964.8273 
   38300    300.89523   -45109.407    239.54667   -3884.3372   -5877.0557   -5812.5859 
   38400    297.92987   -45108.319    237.18592   -3792.5699   -5871.3933   -5602.5301 
   38500    301.46724   -45107.576    240.00206   -3877.0616   -5362.9594   -6157.8268 
   38600    302.64041   -45109.913    240.93604   -3818.9248   -5572.7225   -5894.6377 
   38700    297.93418   -45107.881    237.18934   -3766.8489   -5191.0584   -6051.6199 
   38800     304.6974   -45112.916    242.57363   -3810.8179   -5608.2848   -5897.6171 
   38900    298.54743   -45111.312    237.67756   -3915.5162   -6038.7631   -5627.9576 
   39000    299.55558   -45110.319    238.48016   -3677.8992    -5944.509   -5116.9299 
   39100    297.03473   -45111.417    236.47328   -3859.7362   -6015.9803   -5618.3941 
   39200    299.93992   -45108.551    238.78614   -3718.6187   -5439.0306     -5843.31 
   39300    298.85882   -45108.507    237.92546   -3878.4145   -5569.8022   -5953.8426 
   39400    299.72601   -45108.786    238.61584   -3650.7025   -5191.3319   -5789.9344 
   39500    299.59279   -45108.495    238.50979    -3873.213   -5633.4746   -6041.7332 
   39600    300.20457   -45108.733    238.99683   -3891.0533   -5807.3236   -5784.2086 
   39700    296.11636   -45104.703    235.74215   -3767.0972   -5481.7921   -5855.2049 
   39800    300.35044   -45109.099    239.11296   -3925.2717   -6010.5184   -5701.9537 
   39900    302.12698   -45109.921    240.52729     -3873.57   -6086.0609   -5497.3649 
   40000    300.66354   -45108.063    239.36222   -3735.7237   -5588.4165   -5695.7141 
   40100     300.1648   -45109.565    238.96517   -3749.0692   -5349.4162   -5890.1509 
   40200    303.21221   -45107.131    241.39125   -3534.0082   -5311.4939   -5283.7122 
   40300    298.91137   -45104.041     237.9673   -3710.9982   -5900.8297   -5255.7973 
   40400    297.62993   -45108.343    236.94713   -3824.6058   -5786.8446   -5684.4344 
   40500    299.94367   -45113.348    238.78912   -3848.4236   -5515.4716   -6053.0425 
   40600      300.417   -45107.832    239.16595    -3664.621   -5316.2755   -5673.3148 
   40700    299.60723   -45105.897    238.52128   -3635.6353   -5781.5954   -5103.6704 
   40800    301.40514   -45106.065    239.95262   -3804.4019   -5942.2506   -5382.3697 
   40900    297.04085   -45106.381    236.47815   -3838.7804   -6131.4926   -5507.5572 
   41000    306.57718   -45107.905    244.07015   -3907.0703   -5696.5805   -6012.8832 
   41100    299.18658   -45105.367    238.18639   -3766.0362   -5645.8344   -5626.3865 
   41200    295.49179   -45102.547    235.24492   -3782.8161   -5504.9241   -5768.9801 
   41300    302.03414   -45109.784    240.45338   -3733.6997   -5226.0713   -6013.2875 
   41400    299.15889     -45108.6    238.16435   -3857.2929   -5348.2817   -6162.0506 
   41500    299.93874   -45110.813     238.7852   -3898.2186   -5749.3511   -5884.9689 
   41600    308.51246   -45112.653    245.61085   -3803.2743   -5776.8442   -5678.2987 
   41700    303.61914   -45111.077    241.71521   -3930.1048   -5615.9526   -6145.4455 
   41800    297.97916   -45109.153    237.22515   -3620.1678   -5376.7085   -5451.0765 
   41900     298.9316   -45111.179     237.9834    -3814.714    -5864.987   -5556.1942 
   42000    301.97512   -45109.635    240.40639   -3704.1492   -5077.8091   -6052.0141 
   42100    303.06488   -45110.032    241.27396   -3845.4708   -5749.5775   -5928.8289 
   42200    297.31915   -45105.877    236.69971   -3735.4485   -5578.5658   -5566.4955 
   42300    300.25469   -45109.235    239.03673   -3783.2794   -5865.6578   -5453.2504 
   42400    301.40827   -45108.572    239.95511     -3895.97   -6086.1791   -5504.1223 
   42500    300.65897   -45103.737    239.35858   -3941.5797   -5800.1373    -6078.655 
   42600    301.05553   -45106.553    239.67429   -3975.5992   -5587.5653   -6214.7808 
   42700    305.23095   -45107.509     242.9984   -3720.5824   -5257.9711   -5912.0829 
   42800    303.02578   -45102.399    241.24283   -3688.9343   -6004.0764   -5169.6945 
   42900    300.95756   -45106.542     239.5963   -3888.5926   -5899.6986   -5645.8865 
   43000    306.17872   -45105.836    243.75293   -3641.7657   -5567.8806   -5373.8556 
   43100    299.18196       -45110    238.18272   -3631.5752   -5280.5781   -5647.3817 
   43200    294.78656   -45111.049    234.68348   -3811.4526   -5523.3317   -5829.8421 
   43300    299.63011   -45108.151    238.53949   -3772.4065   -5703.1802   -5610.3482 
   43400    299.95441   -45103.424    238.79767   -3862.5376   -5349.2796   -6207.0623 
   43500    297.65572   -45110.338    236.96766   -3877.0281   -5749.9523   -5860.0554 
   43600    297.28008    -45110.87    236.66861   -3994.1363   -6035.4726   -6014.3659 
   43700    299.21427   -45106.639    238.20844   -3929.7259   -5980.1733    -5776.376 
   43800    298.69014   -45111.122    237.79118   -3748.0529   -5773.2027   -5512.1321 
   43900    299.95847   -45112.434    238.80091   -3846.5303   -5669.0396   -5956.2887 
   44000    300.50498   -45108.599    239.23599    -3886.438   -5743.8316   -5899.7541 
   44100    302.33833   -45111.865    240.69554    -3853.355   -5495.8673   -5973.3855 
   44200    302.68224   -45110.973    240.96934   -3884.5135   -6001.0848   -5709.6107 
   44300    295.80574   -45105.379    235.49486   -3815.6771   -5525.0006   -5803.0799 
   44400    295.98136   -45110.498    235.63468   -3722.0654   -5335.8011   -5885.7142 
   44500    302.57762   -45116.905    240.88605   -3719.3344   -5559.2196   -5655.7443 
   44600    296.20368   -45108.944    235.81167    -3840.967   -5835.2869   -5609.6478 
   44700    299.75235   -45110.218    238.63681   -3867.3783   -5500.9166   -6113.4787 
   44800    304.11428   -45108.236     242.1094   -3945.4482   -5709.9182   -5950.9633 
   44900    304.89796    -45107.31     242.7333   -3765.5903   -5646.2427   -5780.5002 
   45000    301.99984    -45105.44    240.42607   -3690.7099   -5240.9109   -5761.3289 
   45100    305.20675   -45109.012    242.97913   -3733.4453   -5386.7913   -5972.4662 
   45200    301.79917   -45105.475    240.26631   -3717.0996   -5290.5731   -5734.8681 
   45300     305.9972   -45106.465    243.60842   -3769.3389   -5622.2968   -5799.8342 
   45400    303.27436   -45108.617    241.44073    -3999.636   -5757.9278   -6176.1907 
   45500    300.44409   -45105.908    239.18751   -4015.7312   -5934.0869   -6145.8192 
   45600    299.98235   -45111.975    238.81992   -3748.7998   -5585.7262   -5675.6323 
   45700    298.40155   -45108.698    237.56142    -3871.966   -5575.6497    -5983.014 
   45800    297.15708   -45108.306    236.57069   -3829.7947   -5776.5597   -5639.9633 
   45900    293.42411   -45110.133    233.59882   -3745.7085   -5926.9094   -5374.5925 
   46000    302.72012   -45110.581     240.9995   -3741.2892   -5615.6473   -5637.2122 
   46100    296.37032   -45109.333    235.94433   -3789.4003   -5773.7603   -5456.4485 
   46200    297.11439   -45110.473     236.5367   -3711.1469   -5725.4056   -5379.5673 
   46300    295.68079   -45107.718    235.39539   -3853.0078   -6014.8555   -5529.6295 
   46400    302.42912   -45109.103    240.76782   -3942.6936   -6036.2752   -5753.7034 
   46500    301.06552    -45108.89    239.68225   -3921.4383   -6239.5074   -5627.5921 
   46600    298.88922   -45111.249    237.94966   -3781.5253   -5730.1183   -5674.7478 
   46700    300.01891   -45109.579    238.84902   -3775.8158   -5596.7822   -5636.5922 
   46800    298.96298       -45110    238.00839   -3906.9072   -5884.1874   -5941.3592 
   46900    297.44327   -45109.032    236.79852   -3603.0563   -5638.9619   -5156.1884 
   47000    301.66986   -45109.268    240.16337   -3711.2685   -5260.3606   -5958.2328 
   47100    302.66299   -45110.565    240.95401   -3719.3391   -5295.2678   -5873.6375 
   47200      299.431   -45106.157    238.38098   -3656.0618   -5301.2504   -5692.1717 
   47300    301.85039   -45104.712    240.30709   -3926.9646     -5747.07   -5835.4841 
   47400    301.90302    -45106.35    240.34899   -3687.6996   -5555.4532   -5506.6239 
   47500    296.99605   -45107.217    236.44248   -3834.6102   -5547.7094   -5864.2267 
   47600     300.0876   -45113.575    238.90371   -3791.1036   -5550.4653   -5924.2214 
   47700    295.04344   -45111.877    234.88799   -3780.2952   -5544.7044   -5825.5276 
   47800    300.20866   -45113.012    239.00009    -3832.943   -5781.9599   -5805.9794 
   47900    294.41613   -45110.904    234.38858   -3813.2053   -5401.8045   -6020.5468 
   48000    295.42979   -45106.457    235.19556   -3840.2162   -5490.4164   -6051.8672 
   48100    302.59059   -45109.015    240.89637   -3861.5797   -5685.0275   -5797.8735 
   48200    299.07849   -45108.266    238.10035   -3679.4867   -5585.3898   -5626.6998 
   48300    301.62299    -45113.16    240.12605   -3771.8227    -5712.831   -5668.2725 
   48400    298.44131   -45104.997    237.59308   -4059.2018   -5833.0925   -6279.3534 
   48500    303.95775   -45106.352    241.98479   -3894.6373   -6063.7191   -5634.5318 
   48600    304.05479   -45105.376    242.06205   -3814.2716   -5775.2716    -5647.457 
   48700    302.53235    -45110.16       240.85   -3954.6009   -5943.4443   -5861.9468 
   48800    301.78512   -45109.021    240.25512   -3844.3404   -5598.6522     -5932.69 
   48900    301.77603   -45107.535    240.24789   -3904.5471   -5919.7107    -5766.913 
   49000    298.20908   -45106.474    237.40819   -3937.9062   -5908.3115   -5949.6459 
   49100    296.91501   -45109.487    236.37797   -3806.9647   -5421.7645   -5911.4342 
   49200    300.59334   -45107.968    239.30634     -3841.02   -5827.3047   -5695.3998 
   49300    301.73687   -45111.538    240.21671   -3815.7122   -5692.2613   -5621.4426 
   49400    301.22256   -45108.037    239.80727   -3684.8474   -5591.1279   -5618.1152 
   49500    300.78935   -45108.556    239.46238   -3860.5299   -5966.8294   -5470.0837 
   49600    296.81678   -45108.853    236.29976   -3719.8161   -5627.1199    -5566.436 
   49700    303.39343    -45111.25    241.53552   -3748.4339   -5613.1637   -5638.5521 
   49800    298.21754   -45108.839    237.41493   -3893.9375   -5755.1048   -5926.7506 
   49900    296.06584    -45108.89    235.70194   -3868.1865   -5681.5181   -5893.9126 
   50000    301.02227    -45106.98    239.64781    -3780.333   -5841.8946   -5528.9005 
   50100    304.07948    -45110.47     242.0817   -3749.6517   -5900.7419   -5244.8067 
   50200     299.1956   -45106.607    238.19358   -3550.2604   -5331.6463   -5409.1927 
   50300    296.69253   -45102.008    236.20085     -3763.63   -5138.7714   -6071.4414 
   50400     295.9234   -45111.796    235.58854   -3846.0761   -5806.4125   -5751.3708 
   50500    292.78156   -45112.004    233.08727   -3845.2441   -5774.9176   -5723.2219 
   50600    297.34806   -45109.687    236.72272   -3873.4298   -5361.3291    -6278.844 
   50700    298.75494   -45108.459    237.84276   -4056.2459   -5827.5949   -6309.3013 
   50800     302.2827   -45109.099    240.65126   -3912.9295   -5917.3459   -5807.6324 
   50900    303.04968   -45107.943    241.26186   -3756.0902   -5539.8503   -5718.3913 
   51000    302.26878   -45113.371    240.64018   -3822.7649   -5695.8201   -5851.8495 
   51100    295.42051   -45110.251    235.18818   -3737.3375     -5134.03   -6091.4812 
   51200    298.98633   -45110.505    238.02697   -3771.5209   -5510.5628   -5771.2384 
   51300    300.99945   -45104.135    239.62965   -3738.2389   -5573.6853   -5724.4885 
   51400    303.15419   -45108.455    241.34506   -3820.7935   -5462.1281   -5984.8986 
   51500    298.27794   -45111.112    237.46302   -3749.4702   -5240.3391   -6075.8968 
   51600    304.80631   -45109.516    242.66034    -3836.963    -5387.742   -6095.0774 
   51700    301.74695    -45107.12    240.22474   -3865.5068   -5578.8184   -6020.5108 
   51800    297.85237   -45109.998    237.12421   -3817.4277    -5768.811   -5666.3946 
   51900    304.60136   -45113.945    242.49717   -3798.2221   -5832.1811   -5616.0628 
   52000    301.44396   -45112.639    239.98352    -3909.408   -5898.3343   -5830.9259 
   52100    295.33932   -45108.696    235.12354   -3894.2169   -5476.1963   -6196.3139 
   52200    299.28794   -45108.992    238.26709   -3774.5677   -5547.2428   -5674.5692 
   52300    297.75833   -45108.155    237.04935   -3819.1611   -5580.6221   -5819.9846 
   52400    307.70831   -45106.859    244.97066   -3878.9059   -5691.6893    -5856.984 
   52500    303.36212   -45110.464     241.5106   -3891.3999     -5567.56    -6049.954 
   52600     301.4432   -45110.205    239.98292   -3771.4116   -5693.3989   -5664.0724 
   52700    295.97734   -45110.472    235.63148   -3894.6744   -5715.5626   -5881.5924 
   52800    300.04066   -45111.743    238.86634   -3858.3161   -5557.7859   -5995.0288 
   52900    300.50995   -45106.859    239.23994   -3791.4781   -5792.8454   -5586.7684 
   53000    301.70419   -45105.232     240.1907   -3685.5063   -5660.2291   -5367.1185 
   53100    294.28813   -45109.518    234.28668   -3660.0889   -5391.2601   -5682.2424 
   53200    295.29821   -45109.257    235.09081   -3785.9019   -5863.3036   -5527.2019 
   53300    299.26542   -45110.848    238.24916   -3897.0266   -6225.0734    -5491.522 
   53400    295.52388   -45111.539    235.27047   -3657.5468   -5586.1115   -5367.5125 
   53500    293.66329   -45108.771    233.78923   -4048.8397    -6224.056    -5822.298 
   53600    299.08354   -45108.703    238.10437   -3929.8341   -6136.1711   -5550.9833 
   53700    297.92203   -45110.465    237.17967   -3776.2815   -5785.8153   -5630.0937 
   53800    300.29203   -45112.585    239.06646   -3954.0209   -6173.9011   -5607.5772 
   53900    303.29159   -45104.321    241.45445   -3950.9825   -6082.5141   -5766.9721 
   54000    302.54742    -45106.96    240.86201   -3911.3454   -5836.3231   -5831.3486 
   54100    302.66035   -45107.696    240.95191   -3749.7964   -5698.4133   -5610.3579 
   54200    295.48548   -45109.679     235.2399   -3837.6381   -5682.4148   -5854.9422 
   54300    300.02822   -45114.617    238.85644   -3838.1308     -5949.21   -5574.8267 
   54400    295.74284   -45111.454    235.44479   -3861.9198   -5584.5183   -6014.5966 
   54500    300.72606   -45111.613      239.412   -3761.5761   -5436.5593   -5890.2779 
   54600     303.1743   -45110.725    241.36107   -3786.4077   -5252.5214   -6112.1977 
   54700    297.33891   -45105.772    236.71544   -3637.5752   -5146.2434   -5749.0373 
   54800      304.941   -45107.686    242.76757   -3720.8509   -5470.1331   -5652.6399 
   54900    305.21166   -45111.209    242.98304   -3798.3749   -5684.6708   -5691.9989 
   55000     297.2813   -45109.732    236.66957   -3684.9841   -5427.7124   -5612.4202 
   55100     305.4615   -45109.981    243.18194   -3719.0413   -5557.1343   -5745.9338 
   55200    303.76401   -45106.543    241.83055   -3733.6261    -5789.092   -5470.2449 
   55300    300.90779   -45108.274    239.55667   -3735.5633   -5725.2921   -5435.6702 
   55400    300.44897   -45106.898     239.1914   -3680.0766   -5565.1754   -5429.5035 
   55500    301.09843   -45108.527    239.70845   -3699.5092   -5608.1111   -5540.5246 
   55600    293.65086   -45111.761    233.77934   -3793.3246   -5635.8486    -5687.659 
   55700    298.86417   -45109.271    237.92972    -3783.497     -5547.76   -5816.8731 
   55800    297.09896   -45102.769    236.52442    -3800.961   -5959.7909   -5393.3432 
   55900    303.02728    -45107.44    241.24403   -3744.3876    -5775.475   -5321.4691 
   56000    304.31146    -45108.25    242.26638   -3718.5368    -5386.113   -5772.3324 
   56100    303.94077    -45105.31    241.97127   -3843.1928    -5850.879   -5588.4711 
   56200    297.74224   -45109.284    237.03653   -3713.3321   -5708.6545   -5527.3972 
   56300    298.48954   -45104.389    237.63147   -3706.8826   -4903.6372   -6100.7812 
   56400    301.03232    -45111.53    239.65581   -3599.7584   -5273.8282   -5632.1042 
   56500    300.20123   -45105.727    238.99417    -3680.651   -5391.6758   -5495.0643 
   56600    300.29069   -45109.981    239.06539   -3753.6036   -5476.1094   -5702.3564 
   56700     296.1214   -45111.202    235.74616   -3802.7955   -5428.7529   -5906.6837 
   56800    299.71829   -45112.103     238.6097   -3836.5029   -5448.8136   -6036.3888 
   56900    301.73424    -45108.14    240.21462   -3737.4769   -5655.9397   -5570.9775 
   57000    302.80783   -45104.481    241.06932   -3810.0688   -5678.1885   -5759.7516 
   57100    303.06451   -45104.845    241.27367   -3588.7342    -5142.161   -5656.5236 
   57200    298.94602   -45106.787    237.99488   -3610.1284   -5235.3355   -5664.1388 
   57300    301.01339   -45106.442    239.64074   -3981.0375   -5523.0946   -6343.0145 
   57400    302.83969   -45110.668    241.09468   -3921.9413    -6018.372   -5757.8582 
   57500    301.09498   -45106.731     239.7057   -3731.4709   -5539.2385   -5614.7278 
   57600    299.71383   -45109.787    238.60615   -3758.1633   -5411.0398   -5792.8076 
   57700     299.2721   -45106.917    238.25448   -3825.5181   -5465.8347   -5987.2101 
   57800     304.7685   -45106.458    242.63024   -3670.1712   -5451.8547   -5503.8587 
   57900    302.93385   -45110.369    241.16965    -3784.225   -5844.8924    -5555.967 
   58000    302.32323   -45110.052    240.68353   -3776.1198   -5503.1577   -5792.7664 
   58100    308.23659   -45108.577    245.39123   -3740.5626   -5565.2768   -5719.7839 
   58200    299.46743    -45106.65    238.40998   -3952.0227   -6081.6017   -5701.9402 
   58300    301.73276   -45112.081    240.21344   -3973.8308   -6042.2894   -5896.1161 
   58400    290.68007   -45110.246    231.41425   -3851.7642   -5444.2553    -6005.748 
   58500    304.45709   -45110.338    242.38232   -3880.4022   -5663.4683    -5985.983 
   58600    298.00139   -45111.317    237.24285   -3846.0827    -5545.988   -5978.4651 
   58700    297.58008   -45112.248    236.90744   -3963.5908   -5711.7147   -6186.2218 
   58800     291.6799   -45110.558    232.21023   -3843.0401   -5759.4907   -5806.3804 
   58900    299.32435   -45110.012    238.29608   -3737.8817   -5630.6752   -5605.0444 
   59000    299.84512   -45107.737    238.71067   -3844.1139   -5479.8636   -5954.0292 
   59100    294.83879   -45104.256    234.72507   -3922.3525   -5816.5576   -5869.1653 
   59200    297.83994   -45106.959    237.11432   -3901.9353   -5574.6672   -6108.6569 
   59300    303.26769   -45111.209    241.43542   -3830.8442   -5471.9404   -6067.4075 
   59400    295.31952   -45110.163    235.10778   -3771.6499   -5740.3801   -5650.5954 
   59500    297.08348    -45110.08    236.51209   -3795.9502   -5403.8864   -6015.0835 
   59600    298.29972   -45111.575    237.48036   -3779.9801   -5264.3026   -6074.1871 
   59700    301.26756   -45106.862    239.84309   -3824.1526   -5604.5818   -5823.0106 
   59800    301.45602   -45107.927    239.99313   -3837.6422   -5406.0658   -6115.4789 
   59900    301.61564   -45108.258     240.1202   -3721.2606   -5672.1787   -5474.4574 
   60000    303.67413   -45107.955    241.75899   -3665.8074   -5678.2333   -5333.1534 
   60100    304.16568   -45111.834    242.15032   -3694.4841   -5449.6638   -5608.3173 
   60200     297.7614   -45106.771    237.05179   -3938.9643   -6036.6869   -5824.3237 
   60300    296.39269   -45106.536    235.96214   -4068.9925    -6085.048   -6023.1076 
   60400    296.29242   -45108.194    235.88231   -4032.1821   -6153.6962   -5924.4239 
   60500    299.05821   -45109.188    238.08419   -4005.5993   -5976.3863     -5986.79 
   60600    300.03452   -45109.344    238.86145   -3741.6993   -5771.2937   -5472.1938 
   60700    309.08927    -45109.72    246.07006   -3738.9389   -5451.2598   -5770.4148 
   60800    296.50964   -45105.041    236.05525   -3783.5123   -5691.5949   -5649.5877 
   60900    298.44941    -45106.56    237.59953   -3860.3017   -5749.6603   -5785.6407 
   61000     299.6589   -45110.477    238.56242   -3652.0963   -5044.2136     -5880.15 
   61100    297.30968    -45108.89    236.69217   -3668.1705   -5395.7617   -5624.0041 
   61200    298.41812    -45108.78    237.57461   -3696.7701   -5666.2099   -5361.2846 
   61300    304.78314   -45109.008    242.64189   -3644.7112   -5669.9314   -5326.6452 
   61400    301.49089   -45103.054    240.02089   -3722.9723   -5437.2659   -5655.4589 
   61500    304.74733   -45105.358    242.61338   -3705.1699   -5319.9624   -5783.0448 
   61600     303.9008   -45109.565    241.93945   -3716.5215    -5436.778   -5713.1562 
   61700    299.71827   -45107.927    238.60968   -3861.1959    -5765.055   -5819.4795 
   61800    296.73058   -45107.201    236.23114   -3798.6369   -5393.9338   -5872.5192 
   61900    294.66094   -45107.764    234.58347    -3635.228   -5647.6755   -5316.2619 
   62000    298.78047   -45110.873    237.86308   -3710.9545   -5670.4691   -5494.6837 
   62100     301.7721   -45108.385    240.24476   -3629.6998   -5307.2672   -5526.7368 
   62200    303.33198   -45109.003     241.4866   -3556.6456   -5462.7659    -5302.005 
   62300    304.89925   -45114.982    242.73433   -3668.6746   -5391.3608   -5596.9356 
   62400    300.39192   -45106.769    239.14598   -3839.4456   -5495.1064   -6041.3162 
   62500    299.14277   -45110.989    238.15152   -3674.1621   -5565.6323   -5432.0529 
   62600    298.06062   -45108.889       237.29   -3751.9856   -5765.7339   -5512.3859 
   62700    298.77988   -45112.511    237.86261   -3763.3857   -5639.9556   -5756.0105 
   62800    293.85051   -45107.669    233.93828   -3878.0039   -5801.1938   -5773.1201 
   62900    297.36645   -45107.379    236.73737    -3824.745   -5497.9534   -5873.8082 
   63000    303.10875    -45111.77    241.30889   -3750.1404   -5684.7188   -5687.8633 
   63100    297.29744   -45105.477    236.68243   -3793.2012   -5831.5344   -5388.8489 
   63200    296.83526    -45109.06    236.31448   -3922.9449   -5790.6888    -5913.525 
   63300    296.68812   -45109.283    236.19734   -3707.5802   -5871.2113   -5234.2542 
   63400    297.56845   -45111.149    236.89818   -3766.6711   -5576.9211   -5704.3424 
   63500    303.15757   -45111.159    241.34775   -3582.0453   -5464.7832    -5376.088 
   63600     303.4776    -45106.92    241.60254   -3797.7995   -6045.7696   -5293.6108 
   63700    294.38175   -45106.843    234.36121   -3792.7118   -5802.2152   -5584.8155 
   63800    298.46626   -45108.422    237.61294    -3711.032   -5640.3579   -5526.7388 
   63900    301.24972   -45104.196    239.82889   -3705.1427   -5796.2342   -5276.7236 
   64000    300.33663   -45110.527    239.10196   -3721.0831     -5616.79   -5639.8249 
   64100    296.65052   -45111.148     236.1674   -3918.0079    -6105.042    -5594.096 
   64200    297.79339   -45110.189    237.07726   -3814.3423   -5456.0906   -5916.5417 
   64300    296.56934   -45109.084    236.10277     -3786.78    -5581.964   -5771.2164 
   64400    298.44279   -45111.577    237.59426   -3944.3739   -5819.0317   -5975.1791 
   64500    298.17087   -45113.636    237.37778     -3798.85   -5508.2977   -5842.1843 
   64600     294.6402    -45110.34    234.56697   -3992.3587   -6031.9144    -5980.979 
   64700    296.55301   -45107.435    236.08978   -3853.0703   -5802.3113   -5843.5019 
   64800    301.05632   -45106.816    239.67492   -3752.0811   -5575.0918   -5709.3854 
   64900    294.91614   -45110.695    234.78664   -3973.7499   -6131.7353   -5657.5843 
   65000    293.90478    -45109.99    233.98149   -3901.4518   -6162.4357   -5629.8154 
   65100    300.62659    -45107.94    239.33281   -3692.3558   -5589.5722   -5550.2937 
   65200     299.2768   -45108.346    238.25822   -3670.1198   -5507.0599   -5622.3829 
   65300    302.08846   -45115.445    240.49662   -3876.9878   -5840.9719   -5732.5393 
   65400     304.6728   -45105.995    242.55405   -3600.5105   -5297.7686   -5556.3086 
   65500    303.43497   -45110.373     241.5686   -3605.4365   -5588.9609   -5300.2004 
   65600    301.66988   -45102.612    240.16338   -3657.8004   -5495.9479   -5320.8313 
   65700    307.71881   -45110.096    244.97901   -3452.7165   -5210.1812   -5365.8757 
   65800    302.01166   -45110.684    240.43548   -3749.5289    -5928.938   -5270.4691 
   65900    302.13531   -45109.058    240.53392   -3885.9181   -5902.8623   -5678.6082 
   66000    297.70888   -45111.453    237.00998   -3870.3997   -5940.3814   -5676.9046 
   66100    299.30034   -45110.097    238.27696   -3816.0718   -5980.3491   -5482.1589 
   66200    298.25616   -45106.874    237.44568   -3879.6064   -6059.0632   -5513.5743 
   66300    302.61501   -45103.922    240.91582   -4021.4209   -6125.4263   -5829.8576 
   66400    298.92982   -45110.118    237.98199    -3927.255    -6067.273   -5705.3829 
   66500    299.69251   -45101.108    238.58917   -3722.7098   -5414.7219   -5688.8886 
   66600    304.30443   -45106.661    242.26078   -3748.0901   -5421.8886   -5903.0923 
   66700    302.43179   -45108.349    240.76995   -3781.8514   -5446.1523   -5795.3526 
   66800    302.42178     -45107.6    240.76198   -3802.7068   -5653.8269   -5781.8035 
   66900    299.54039   -45108.949    238.46806   -3912.3408   -5705.8765   -6140.2206 
   67000    301.23902   -45108.163    239.82037   -3930.5682   -5773.6327   -6048.0897 
   67100     301.9758   -45106.114    240.40693   -3807.4648   -5952.0004   -5444.4883 
   67200    297.18535   -45108.384    236.59319   -3691.4296   -5447.3079   -5614.6049 
   67300    300.75143   -45107.243    239.43219   -3720.4566   -5562.2055   -5659.7085 
   67400    298.43225   -45105.837    237.58587   -3903.1621   -5832.4255   -5737.7228 
   67500    296.70441   -45110.178    236.21031   -3827.8288   -5988.4882   -5557.6468 
   67600    299.86301   -45111.566    238.72491   -4058.7628   -6213.3912   -5934.0489 
   67700    299.13837   -45109.256    238.14801   -3846.3147   -5988.0325   -5589.3917 
   67800    297.28842   -45107.082    236.67525   -3847.7931   -5345.2391   -6216.2952 
   67900    302.20868   -45105.022    240.59233   -3846.0111   -5565.6597   -5964.6078 
   68000    296.59851   -45104.695      236.126   -3752.2152   -5442.3129   -5825.4657 
   68100    300.85947   -45109.528     239.5182   -3741.5302   -5605.6313    -5611.842 
   68200    301.44734   -45110.665    239.98622   -3733.0545   -5307.4993   -5756.8022 
   68300    302.60556   -45109.752    240.90829   -3583.7771   -5425.3536   -5375.9105 
   68400    296.38496   -45111.591    235.95599   -3834.3862   -5869.2666   -5602.9775 
   68500    304.72207   -45111.796    242.59328   -3639.9068   -5700.1629   -5228.4597 
   68600    304.15811   -45107.968     242.1443   -3827.1622   -5682.9458   -5701.3288 
   68700    296.63588   -45107.227    236.15575   -3754.2859   -5449.3187     -5831.51 
   68800    301.06138   -45110.107    239.67895   -3639.8414   -5486.0018   -5521.4469 
   68900    296.67896   -45113.888    236.19005   -3770.7174   -5490.5938   -5781.6281 
   69000    297.94595   -45110.088    237.19871   -3820.2351   -5716.5517   -5760.6423 
   69100    298.09238   -45109.097    237.31529   -3693.8833   -5795.9707   -5367.8586 
   69200     299.3519   -45109.228    238.31801   -3789.0566   -5899.4053   -5480.8617 
   69300    294.75713   -45108.701    234.66005   -3803.4773   -5980.3298   -5434.1704 
   69400    300.26096   -45108.891    239.04172   -3775.0147   -6214.7672   -5218.0693 
   69500    297.70699   -45109.277    237.00847   -3982.8425   -5800.1953   -6067.9845 
   69600    300.65218   -45107.292    239.35318   -3830.6443   -5854.4384   -5625.1082 
   69700    303.05583   -45108.478    241.26676   -3715.8277    -5636.736   -5613.4825 
   69800    300.74853   -45109.231    239.42988   -3764.6736   -5593.1191   -5675.3314 
   69900    299.14731   -45108.801    238.15513   -3780.2183   -5653.9773   -5530.6869 
   70000    301.18121   -45108.011    239.77435    -3670.616   -5367.6931   -5765.9395 
   70100    297.23741   -45105.107    236.63464   -3840.0559   -5672.3082   -5817.7023 
   70200    296.00771   -45109.851    235.65565   -3909.4709   -5785.5649   -6023.2723 
   70300    292.67719     -45106.8    233.00418   -3935.4963   -6028.2861   -5704.0109 
   70400     298.5045   -45110.947    237.64338   -3956.1304   -6082.4407   -5753.0415 
   70500    299.25956    -45111.03     238.2445   -3764.3171     -5932.43   -5391.4327 
   70600    293.93472   -45109.492    234.00532   -3858.8982   -5854.4173   -5670.5462 
   70700    299.70613   -45109.646    238.60002   -3661.2891   -5534.4371   -5551.8713 
   70800    300.33911   -45108.898    239.10394    -3644.111   -5226.2805   -5632.8255 
   70900    298.59307   -45111.378     237.7139   -3835.5042     -5400.75   -6034.0613 
   71000    301.88313   -45109.634    240.33315   -3725.3571   -5508.6647   -5720.4576 
   71100    295.89761   -45112.811      235.568   -3739.0738   -5376.0277   -5778.2526 
   71200    299.67575   -45114.349    238.57583   -3701.6416   -5612.6622   -5557.2857 
   71300    296.91956   -45109.026    236.38159    -3636.379   -5440.6641   -5423.7363 
   71400    296.92813   -45107.729    236.38841   -3582.5019   -5350.5951   -5354.8457 
   71500    302.90959   -45111.598    241.15033   -3779.1214   -5680.4633   -5713.3996 
   71600     301.8113   -45104.896    240.27597    -3848.219    -5696.799   -5793.6263 
   71700    298.07802   -45108.132    237.30386   -3932.3452   -5814.0046   -5907.2869 
   71800    296.76615     -45109.4    236.25946    -3991.949   -6051.0846   -5909.6551 
   71900    302.98396   -45110.136    241.20954   -3966.7935   -6401.6042   -5505.6728 
   72000    305.10269   -45107.755    242.89629    -3858.789   -6070.4399   -5425.4253 
   72100     297.0149   -45106.627    236.45749   -4159.7168   -6426.0656   -6057.4046 
   72200    296.20236   -45108.543    235.81062   -4206.9171   -6422.7942   -6069.3413 
   72300    302.42721   -45111.182    240.76631   -3942.9044   -5881.7965   -6024.4197 
   72400    296.43058   -45104.985    235.99231    -3881.411   -5898.0194   -5717.6615 
   72500    303.07444    -45108.25    241.28157   -3776.4335   -6206.2571   -5193.4843 
   72600    302.17718   -45107.823    240.56725   -3554.8065   -5763.0472   -4932.6543 
   72700    302.74234    -45111.36    241.01719    -3826.612   -5820.6925   -5661.2333 
   72800    301.71432   -45104.983    240.19876   -3877.0366   -6105.3788    -5504.187 
   72900    299.26068   -45111.475    238.24539   -3759.3791    -5433.324   -5840.1881 
   73000    300.07796    -45109.51    238.89603   -3794.0625   -5703.8183   -5685.9019 
   73100    300.32988   -45110.063    239.09659   -3881.7773   -5679.6046   -5857.4923 
   73200    295.59584   -45109.333    235.32776    -3887.939   -5703.3722   -5958.0049 
   73300    302.63947   -45113.331    240.93529   -3873.1216   -5507.9999   -6050.8588 
   73400    299.30643   -45110.761    238.28181   -3769.0158   -5229.7715   -6050.9688 
   73500    304.71674   -45107.403    242.58903   -3836.5784   -5724.0045   -5782.1618 
   73600     303.7945   -45107.606    241.85482   -3885.2798   -5684.2583   -5913.2744 
   73700    298.60022   -45108.648    237.71959   -3808.4538   -6040.0539   -5507.9388 
   73800      298.203   -45111.831    237.40335   -3696.4604   -6077.8619   -5080.3502 
   73900    301.76665   -45111.762    240.24042    -3873.486    -5952.184   -5692.7636 
   74000    295.95897   -45109.827    235.61685   -3930.7279   -5764.7102   -6030.2664 
   74100    292.43157   -45108.203    232.80865   -3968.5355   -5707.2909   -6100.6707 
   74200    300.58833   -45113.117    239.30235   -3860.4074    -5730.149   -5977.9345 
   74300    301.87563   -45111.879    240.32718    -3684.573   -5667.9535   -5364.7286 
   74400    299.56309   -45110.421    238.48614   -3931.9618   -5928.4153   -5850.4562 
   74500    295.15488   -45111.968    234.97671   -3720.7766   -5671.2968   -5514.5631 
   74600    296.19976   -45109.919    235.80855    -3822.799   -5820.8047   -5651.1067 
   74700    297.20775   -45111.515    236.61103   -4028.4049   -5738.2856    -6335.839 
   74800    298.27598   -45109.051    237.46145    -4010.842   -5619.0738    -6416.549 
   74900    299.70361   -45108.176    238.59801   -4018.7247   -5896.7891   -6162.8419 
   75000    300.90172   -45108.609    239.55184   -4034.1849   -6211.8649   -5862.7607 
   75100    298.98161   -45107.703    238.02322   -3929.9853    -5971.642   -5815.1733 
   75200    299.79545   -45112.291    238.67113   -3965.6377   -5654.1856   -6120.0984 
   75300    292.21726   -45109.282    232.63803   -3911.6122   -6159.3831   -5678.4084 
   75400    294.52701   -45110.464    234.47685   -3918.4188   -5958.4393   -5754.2344 
   75500    299.40948   -45110.187    238.36385   -3898.1576   -5774.8641   -5862.7633 
   75600    297.58021   -45114.159    236.90755   -3897.6328   -5720.8137   -6020.2346 
   75700    302.12924   -45109.963    240.52909   -3896.3882   -5749.6452   -5866.7052 
   75800    301.32158   -45109.444     239.8861   -3827.2797   -5345.9489   -6059.9989 
   75900    304.64784    -45108.26    242.53418   -3663.0632   -5280.6578   -5820.7471 
   76000    300.02235   -45106.035    238.85176   -3919.6077   -5906.9965   -5708.3387 
   76100    301.24125   -45107.654    239.82215   -3853.0799   -5796.4563   -5774.4372 
   76200    301.93268   -45107.389     240.3726   -3855.7737   -5771.0956    -5712.381 
   76300    298.36972   -45106.207    237.53609   -3823.4453   -5798.3903   -5762.8584 
   76400    305.51273   -45112.147    243.22273   -3924.4014   -5773.1505   -5906.7494 
   76500    297.54956   -45108.816    236.88314   -3967.1368    -5934.704   -5933.8353 
   76600    297.19076   -45106.908     236.5975   -3862.2458   -5771.0016   -5785.0101 
   76700    294.04114   -45108.578    234.09004   -3927.8236    -5741.338   -5947.1366 
   76800    303.91665   -45110.455    241.95207   -3708.3945    -5583.874   -5602.7152 
   76900    305.10699   -45109.293    242.89971   -3724.3365   -5672.5465   -5483.3476 
   77000    297.62043    -45109.08    236.93956   -3685.5447   -5226.7625   -5869.4012 
   77100    298.09746   -45108.147    237.31933   -3782.9302   -5440.1105   -5897.4082 
   77200    299.37897   -45108.274    238.33956   -3776.2921   -5699.8477   -5607.9789 
   77300    304.75809    -45108.14    242.62195   -3874.7478   -6125.4435   -5444.8132 
   77400    305.94605   -45108.201     243.5677   -3862.6135   -5873.8737    -5760.636 
   77500    305.87786   -45108.819    243.51341   -3702.9144   -5809.8902   -5360.1485 
   77600    301.45585   -45099.813    239.99299   -3852.0878   -5676.9449   -5774.4885 
   77700    301.48756   -45109.498    240.01824   -3758.4668   -5878.1065   -5441.5747 
   77800    299.18921   -45107.204    238.18849   -3929.0819   -5892.8504   -5736.0085 
   77900    301.19362   -45110.144    239.78423   -3698.7875   -5693.6831   -5538.1903 
   78000    293.41073   -45106.667    233.58816   -3616.9666   -5451.7858   -5262.7476 
   78100    303.07719   -45115.029    241.28376   -3661.5456   -5750.0436   -5400.7832 
   78200    302.43165   -45109.206    240.76984   -3845.7986   -5788.6012   -5740.6683 
   78300     299.4448   -45111.084    238.39197   -3855.6078   -5915.5555   -5677.5164 
   78400    302.10314   -45111.531    240.50831   -3847.1034   -5131.3793   -6335.0445 
   78500    299.75927   -45108.363    238.64233   -3699.3359   -5563.3689   -5534.9136 
   78600    303.94737   -45105.758    241.97652   -3895.8555   -6092.8553    -5598.668 
   78700    300.46753   -45109.854    239.20618    -3936.767   -5935.3306   -5804.3064 
   78800    307.47076   -45113.815    244.78154   -4082.6705   -5934.1449   -6261.9228 
   78900    297.06763   -45106.265    236.49947   -3736.7495   -5474.2537   -5896.8129 
   79000    299.66259    -45107.41    238.56535   -3748.0325   -5287.3516   -5902.0429 
   79100    299.14841   -45114.834    238.15601   -3865.3848    -5369.387   -6194.7331 
   79200    295.01145   -45111.539    234.86252    -3905.575   -6146.0988   -5596.7816 
   79300    299.36816   -45107.887    238.33095   -3793.8747   -5800.2036   -5520.1336 
   79400     303.7475   -45111.228     241.8174   -3794.7767   -5962.1361   -5464.8436 
   79500    295.16507    -45106.71    234.98482   -3905.6164    -6179.803   -5470.0616 
   79600    299.71285     -45108.9    238.60536   -3648.7352   -5396.3942   -5645.3669 
   79700    300.02879   -45104.327    238.85689   -3909.9685   -5712.1735   -5998.8352 
   79800     297.0244    -45109.93    236.46505    -3810.346   -5676.2971   -5661.2887 
   79900     298.5919   -45109.833    237.71296   -3717.8763   -5630.6001   -5666.9318 
   80000    296.51732   -45109.668    236.06136   -3803.8581   -5968.4703   -5375.2304 
   80100     300.4075   -45111.488    239.15839   -3721.3534   -5583.5882   -5692.6213 
   80200    298.73134    -45107.99    237.82397   -3810.6155   -5812.0367   -5556.0257 
   80300    309.65546   -45111.727    246.52081   -3749.9194   -5847.0357   -5489.0031 
   80400     304.5184     -45109.9    242.43113   -3684.8151   -5763.0077   -5338.0137 
   80500    300.53903   -45109.835     239.2631   -3550.5053   -5256.3358   -5510.4977 
   80600    296.63645    -45110.64     236.1562   -3758.1115   -5938.9685   -5203.9204 
   80700    303.35023   -45108.857    241.50113   -3706.0583   -5572.0638   -5575.8907 
   80800    299.55272   -45110.347    238.47788   -3762.9093   -5501.5272   -5768.4228 
   80900    299.94103   -45108.243    238.78702   -3835.3603   -5516.8407   -5972.1031 
   81000    299.24923   -45107.484    238.23627   -3957.5229   -5679.3222   -6129.1021 
   81100    300.17444   -45110.113    238.97284   -3725.8196   -5448.6749   -5800.6027 
   81200    296.24724   -45109.118    235.84635    -3930.692   -6132.7528    -5713.897 
   81300    298.47077   -45105.622    237.61653   -3886.3821   -5690.7601   -5888.1114 
   81400    296.01219   -45107.413    235.65922   -3850.2399   -5271.3888   -6405.0463 
   81500    293.97805   -45108.152    234.03982   -3893.6733   -5865.6369   -5746.7507 
   81600    298.43062   -45109.046    237.58457   -3871.7254    -5556.309   -6077.0878 
   81700    299.54452   -45108.333    238.47136   -4146.3013   -6225.7785   -6125.2707 
   81800    299.11451   -45107.225    238.12902   -3938.8921   -6104.4734   -5723.9005 
   81900    303.84722   -45109.412    241.89679    -3940.567   -5987.7808   -5959.2115 
   82000    303.36009   -45109.208    241.50898   -3864.2142   -5891.7889   -5616.1904 
   82100    300.81539   -45105.617    239.48311   -3761.2683    -5299.159   -6018.3245 
   82200     303.9727   -45110.132    241.99669   -4030.1402   -6166.2287   -5791.1882 
   82300    303.61325   -45106.025    241.71053   -3703.3297   -5931.9272   -5211.2858 
   82400    304.42366   -45105.877     242.3557   -3892.4836   -6142.3566   -5553.7915 
   82500    300.04764   -45109.051     238.8719      -3879.7   -5861.5339   -5822.1113 
   82600    297.73894   -45105.593    237.03391   -3906.4343   -5979.5727   -5694.6133 
   82700    306.47136   -45105.279    243.98591   -3673.7862   -5519.6173   -5500.6172 
   82800     300.2923   -45107.513    239.06667   -3908.8641   -5793.4145   -5963.9044 
   82900    305.08962   -45110.153    242.88589   -3784.6772   -5736.8316   -5713.3124 
   83000    296.42344   -45109.586    235.98663   -3860.0783    -5650.493    -5827.684 
   83100    304.71185   -45106.399    242.58514   -3779.7545   -5735.5921   -5677.4009 
   83200    302.22075    -45110.87    240.60194   -3854.3075   -5880.3174   -5532.8371 
   83300    305.29946   -45108.159    243.05294   -3877.9331   -5928.8723   -5830.8122 
   83400    300.60539   -45107.411    239.31593   -3730.4874   -5394.0598   -5839.4413 
   83500    300.90755   -45111.449    239.55648   -3643.5691   -5876.9099   -5051.1103 
   83600    300.58908   -45107.049    239.30294   -3816.2295    -6013.065   -5312.2858 
   83700    302.62873   -45105.018    240.92673   -3729.4996   -5885.4075    -5280.881 
   83800    298.26983   -45111.251    237.45656   -3760.0977   -5575.1964   -5670.9748 
   83900    295.19197   -45110.509    235.00624    -3743.506    -5908.897    -5352.002 
   84000    296.73574   -45110.698    236.23525   -3665.1376   -5514.9841   -5507.1819 
   84100    297.75367   -45112.308    237.04563   -3668.2326   -5256.9952   -5673.6862 
   84200    296.78334   -45108.072    236.27314   -3779.1586   -5723.6382   -5585.5987 
   84300     299.0175   -45108.902    238.05179   -3599.2879   -5129.8864    -5525.706 
   84400    299.31493   -45111.754    238.28857   -3634.9992   -5508.7835   -5387.0925 
   84500    304.20691   -45109.552    242.18315   -3802.8744   -5921.4113   -5487.8845 
   84600    300.46008   -45107.031    239.20024   -3761.8359   -5758.7729   -5465.1152 
   84700    296.09287    -45107.05    235.72345   -3853.2207   -5997.8415   -5498.6568 
   84800    299.25472   -45111.854    238.24064   -3813.0363   -6065.4469   -5314.6237 
   84900    302.36876    -45105.65    240.71977   -3734.5035    -5359.586   -5850.8213 
   85000    300.55346    -45107.61    239.27459   -3841.0374   -5759.2013   -5612.4667 
   85100    300.24199   -45104.272    239.02662   -3622.5228   -5379.1942   -5606.0841 
   85200     303.5899   -45108.172    241.69193    -3726.145   -5566.5168   -5539.9117 
   85300    298.37219   -45106.158    237.53805    -3535.302   -5194.5496   -5353.0339 
   85400    302.84866   -45108.042    241.10183   -3785.2191   -5381.1805   -6062.9487 
   85500     305.3743   -45115.358    243.11252   -3543.0381   -4936.8173   -5708.2152 
   85600    294.87056   -45110.169    234.75035   -3552.7864   -5106.2596   -5528.5532 
   85700    299.53975   -45106.635    238.46756   -3702.4689   -5589.3221   -5432.5255 
   85800    300.99415     -45112.7    239.62542   -3680.1012   -5570.5882   -5523.7085 
   85900    305.30608   -45110.479    243.05821   -3625.4669   -5152.1705   -5737.4379 
   86000    297.73791   -45108.027    237.03309   -3712.9121   -5609.8395   -5515.9603 
   86100    303.05107   -45105.498    241.26297   -3858.7407    -5715.822   -5745.7657 
   86200    304.80694   -45109.958    242.66084   -3568.4343   -5268.6662   -5453.1302 
   86300    300.30464   -45110.629    239.07649   -3807.9783   -5700.2448   -5710.8243 
   86400    303.12242   -45106.982    241.31977   -3697.1849   -5522.9783   -5562.9765 
   86500    300.48034   -45108.528    239.21637    -3813.127   -6037.5318   -5458.2427 
   86600    303.53518   -45111.884    241.64837   -3867.0012   -5580.2572   -5947.0813 
   86700     300.3128   -45111.977    239.08299   -3807.5829   -5708.3067   -5816.8698 
   86800    303.17792   -45112.273    241.36395   -3804.9652     -5643.13   -5686.7385 
   86900    295.59033   -45108.704    235.32337   -3878.4557   -6028.6277   -5614.5127 
   87000    298.08963   -45107.478     237.3131   -3906.3738   -5681.3028   -5958.4599 
   87100    298.71811   -45111.171    237.81344   -3633.1051   -5448.7131   -5592.3032 
   87200     300.8002   -45111.281    239.47102   -3670.1704   -5426.6849   -5600.1396 
   87300    302.03881   -45111.573    240.45709   -3751.9803   -5696.6231   -5634.9354 
   87400    296.85455   -45109.113    236.32983   -3979.9677   -5877.6073   -5986.2897 
   87500    298.51242   -45111.862    237.64968   -3982.8033    -5839.379   -6149.4339 
   87600    296.54886   -45110.433    236.08647   -4084.7018   -6165.9808   -5950.1566 
   87700    301.92754   -45109.118    240.36851   -3959.5425   -6104.4873   -5780.6378 
   87800    306.07969   -45109.736    243.67409     -3927.12    -5972.252   -5707.1909 
   87900    303.42061    -45108.81    241.55716   -4016.8753   -6244.0832   -5825.9962 
   88000    296.79599   -45109.662    236.28322   -3733.0807   -5993.6327   -5205.7203 
   88100    304.58238   -45110.871    242.48206    -3767.213   -5892.8956   -5320.6713 
   88200    299.59182   -45104.631    238.50901   -3922.5616   -5948.5903   -5734.9781 
   88300    298.78583   -45113.192    237.86735    -3764.009   -6231.6606   -5083.8453 
   88400    298.57294   -45108.953    237.69787   -3855.9855   -5996.4763    -5560.165 
   88500    300.02589   -45110.608    238.85458   -3903.4884   -5880.6624   -5891.8747 
   88600    302.54859   -45111.881    240.86294   -3937.8014   -5732.2958   -6021.5603 
[...]
  422000    303.47072   -45107.076    241.59706   -3722.7813   -5457.5143   -5702.9653 
  422100     304.7354   -45111.363    242.60388   -3701.1023   -5418.9968   -5690.6351 
  422200    301.08293   -45107.006    239.69611   -3862.4907   -5718.8499   -5899.9338 
  422300    297.37133   -45111.225    236.74125    -3680.598   -5375.8448    -5677.987 
  422400    293.93227   -45110.131    234.00337    -3749.607   -5480.9441   -5725.9244 
  422500    299.58548   -45106.151    238.50396   -3853.5093   -5324.8498   -6285.6369 
  422600    304.14427   -45113.387    242.13328   -3787.1835   -5934.8549   -5399.2574 
  422700    301.56057   -45111.115    240.07636   -3698.1842   -5369.1901   -5730.2915 
  422800    302.04692   -45110.877    240.46355   -3667.4492   -5422.9555   -5601.3871 
  422900    298.48771   -45107.526    237.63001   -3902.2377   -5820.3177   -5803.5022 
  423000    299.76821   -45105.944    238.64944   -3832.8794   -6010.9466   -5531.9677 
  423100    300.53789   -45106.847    239.26219   -3793.8315    -5795.755   -5598.0611 
  423200    295.43228   -45110.275    235.19755   -3572.8364    -5501.897   -5253.3415 
  423300    300.54002    -45107.31    239.26389   -3602.5366   -5249.7874   -5658.9912 
  423400    300.55446   -45106.797    239.27538   -3804.8158   -5477.4827   -5925.7985 
  423500    301.56503   -45109.343    240.07991   -3835.1259   -5573.9886   -5827.5332 
  423600    302.89364   -45113.221    241.13763   -3735.4724   -5556.4096   -5658.0866 
  423700    299.44897   -45109.303    238.39529   -3844.4583   -5702.5599   -5764.4204 
  423800    306.30357   -45109.497    243.85233   -3640.4078   -5022.2474   -5997.5432 
  423900    300.67018   -45106.138    239.36751    -3910.313    -5871.068   -5772.0654 
  424000    300.07972   -45106.654    238.89744    -3781.166   -5517.4899   -5935.9072 
  424100    290.27638   -45108.081    231.09287   -3872.4486   -5615.2139   -5945.3126 
  424200    299.84804   -45106.197      238.713   -3703.7676   -5810.7257   -5393.3664 
  424300    297.62498    -45107.92    236.94318   -3652.6045    -5596.518   -5344.1229 
  424400    299.37893    -45109.27    238.33953   -3673.7096   -5587.3022   -5553.6467 
  424500    300.42621   -45108.947    239.17328   -3724.7696    -5369.953   -5685.1184 
  424600    297.48144   -45108.148    236.82891   -3860.2049   -5768.7389   -5681.3837 
  424700    299.01207   -45110.541    238.04747   -3775.9508   -5671.6777   -5627.1283 
  424800    301.50247   -45108.189    240.03011   -3671.4382   -5614.5833   -5411.7586 
  424900    302.66447   -45108.842    240.95519   -3935.2846   -5737.1868   -5956.6995 
  425000     297.7716   -45101.578    237.05991   -3862.2272   -5994.0795   -5603.2755 
  425100    303.11464   -45104.668    241.31358   -3698.2164   -5661.2726   -5472.0247 
  425200    300.19809   -45109.005    238.99167   -3685.4065   -5561.8526   -5611.0578 
  425300    296.94131   -45107.651     236.3989   -3804.2752   -5835.4483   -5448.1568 
  425400    296.02908   -45111.364    235.67267    -3698.337   -5551.1862   -5540.2134 
  425500    298.75855   -45107.652    237.84564   -3674.4989    -5439.951   -5520.1296 
  425600    306.70419   -45109.237    244.17126   -3622.2002   -5616.1821    -5294.614 
  425700    304.28217   -45106.791    242.24306   -3756.7855   -5837.9183   -5393.8655 
  425800    297.51505   -45108.537    236.85567    -3817.442   -5559.0747   -5910.2255 
  425900     299.6878   -45109.116    238.58543   -3640.4004   -5474.3593   -5468.8177 
  426000    296.11193   -45109.685    235.73862   -3679.6268   -5528.3049    -5415.905 
  426100    295.80703   -45111.875    235.49589   -3700.1922   -5637.9183   -5558.9072 
  426200    302.49262   -45113.104    240.81837   -3852.5156   -5909.4634   -5618.5729 
  426300    303.84626    -45113.23    241.89603   -3980.2033   -6241.1637   -5724.7595 
  426400    298.98555   -45109.069    238.02635   -3792.9217   -5860.8827     -5553.12 
  426500    303.59325   -45110.791     241.6946   -3699.6896   -5736.8143   -5328.9738 
  426600    298.83114   -45106.581    237.90343   -3603.5916   -5564.6478   -5234.1669 
  426700    304.99261   -45110.963    242.80866   -3726.1629   -5636.8373   -5484.9926 
  426800    300.48479   -45101.263    239.21992   -3872.0663   -5917.6857   -5536.5192 
  426900    302.94354   -45109.146    241.17736   -3922.1885   -5664.5036   -6097.8582 
  427000    301.85084   -45105.661    240.30745   -3839.7489   -5417.0839    -6124.492 
  427100    303.54936   -45109.022    241.65966   -3763.9086   -5474.0104   -5827.6065 
  427200    296.87911   -45108.359    236.34939   -3832.8675   -5420.4987   -6059.5646 
  427300    296.26765   -45108.309     235.8626   -3817.8243   -5545.5141   -5919.0349 
  427400    300.22598   -45107.281    239.01388   -3566.1409   -5370.1456   -5307.0784 
  427500    301.22953   -45107.119    239.81282    -4009.356   -6006.6637   -5980.6598 
  427600     303.4684    -45108.29    241.59521   -3990.9407   -5877.7844   -5954.6323 
  427700    301.57485   -45110.111    240.08773   -3982.4506   -5854.4526   -6148.8671 
  427800    298.32111   -45107.785    237.49738    -3914.608   -5687.9356   -5972.0742 
  427900    301.49895   -45104.832    240.02731   -4091.8235   -6284.4835   -6018.1282 
  428000    301.31842   -45109.138    239.88358   -3880.1158   -6132.5876   -5494.8977 
  428100    294.31626   -45108.177    234.30907   -3813.0457   -5796.7439   -5632.3809 
  428200    299.80807   -45107.145    238.68117   -3655.0889   -5343.1241   -5632.5619 
  428300     301.0313   -45107.154      239.655   -3832.5919   -5633.9019   -5936.2988 
  428400    302.12682    -45107.76    240.52716   -3849.6027   -5675.4066   -5762.7664 
  428500      298.602   -45107.432      237.721   -3865.3021   -5906.7994   -5714.2116 
  428600     306.4162   -45107.968    243.94199   -3820.2253   -5755.3368   -5706.0011 
  428700    302.79117   -45108.356    241.05606   -3876.9898   -5316.4941   -6172.5855 
  428800    303.72256   -45112.352    241.79755   -3712.2076   -5118.5086   -6103.5577 
  428900    293.21425    -45108.17    233.43175   -3930.3038   -5878.0322   -5735.8798 
  429000    301.05672   -45107.201    239.67524   -3730.1482   -5653.2607    -5691.447 
  429100    303.83166   -45104.976     241.8844    -3789.095   -5446.6003    -5874.218 
  429200    305.14798   -45108.439    242.93235    -3828.575   -5724.4295    -5823.397 
  429300    298.01665   -45109.118      237.255    -4085.199   -6360.3886   -5785.4903 
  429400    299.93885   -45109.144    238.78529   -3915.7822   -6039.0839   -5804.0744 
  429500    297.54633   -45115.037    236.88057    -3962.152   -6107.9405   -5703.5903 
  429600    298.01973   -45110.358    237.25745   -3763.5236   -5500.2564   -5873.1246 
  429700    299.71573   -45112.172    238.60766   -3571.5893   -5266.8891   -5467.3339 
  429800    303.84522   -45108.547     241.8952   -3815.0748   -5932.2173   -5499.9383 
  429900    311.37747   -45109.683    247.89173   -3718.2679   -5716.3373   -5507.3071 
  430000    302.43989   -45104.626     240.7764   -3957.2437   -5958.6978   -5856.3827 
  430100    300.50593   -45110.586    239.23675   -3965.9909    -6026.496   -5889.4591 
  430200     302.6433   -45109.206    240.93834   -3918.3612   -5846.7203   -5966.3549 
  430300    301.60537   -45105.667    240.11202   -3791.8456    -5381.604   -5871.2791 
  430400    307.00875   -45110.251    244.41373   -3839.4036   -5546.3497   -6051.9517 
  430500    303.29324   -45107.078    241.45576   -3985.8803   -5617.9356   -6248.0506 
  430600    300.66836   -45105.997    239.36606   -3953.9075   -5577.7055   -6274.9512 
  430700    300.75387   -45106.441    239.43413   -3879.5304   -5760.8428   -5985.7584 
  430800    305.12269   -45107.489    242.91221   -3785.6334   -5616.3144   -5743.3458 
  430900     302.8444   -45107.513    241.09844   -3723.5989   -5367.5641   -5776.0162 
  431000    296.57954   -45106.991     236.1109   -3785.8827   -5682.6604   -5611.3044 
  431100    294.25289   -45107.759    234.25862   -3752.5403   -5865.5249   -5403.3084 
  431200    296.71265   -45108.785    236.21687   -3706.8408   -5472.5087   -5620.0652 
  431300    300.96783   -45110.713    239.60447   -3697.8669   -5692.0263   -5437.5943 
  431400    302.94355    -45112.25    241.17737   -3649.3131   -5580.5225   -5423.6658 
  431500    304.08498   -45110.649    242.08607   -3774.7451    -5434.466   -5794.0585 
  431600    300.34411   -45110.887    239.10792   -3720.6425   -5557.1276   -5672.2058 
  431700    301.11799   -45109.984    239.72401   -3766.7403    -5892.665   -5348.7191 
  431800    299.44166   -45110.882    238.38947    -3736.737   -5820.2877   -5422.9502 
  431900    295.17609   -45107.669    234.99359   -3724.1718   -5440.0382   -5600.0132 
  432000    300.89483   -45107.993    239.54636   -3789.1083   -5651.1909   -5766.4874 
  432100    301.54921   -45112.948    240.06731   -3667.0779   -5214.4284   -5820.3822 
  432200    296.16756   -45108.016    235.78292     -3796.02   -5871.2984   -5408.3939 
  432300    299.10795   -45113.396     238.1238   -3948.5696   -6202.0008   -5660.0353 
  432400    298.28255   -45108.813    237.46669   -3800.2876   -5735.0017   -5633.1738 
  432500    300.04046   -45110.027    238.86618   -3874.8762   -5846.0785   -5795.3367 
  432600    297.80293    -45103.36    237.08485   -3911.3972   -5601.2418   -5986.9919 
  432700    300.49025   -45111.517    239.22426   -3920.5827   -5779.7494   -5971.9848 
  432800    298.48999    -45107.89    237.63183   -3792.1658   -5551.0988   -5697.5064 
  432900    303.28497   -45111.194    241.44918     -3689.42   -5466.8868   -5771.6524 
  433000    300.36922   -45110.677    239.12791   -3893.0991   -5679.2429   -5864.6803 
  433100    297.00826   -45104.148    236.45221   -3789.4262   -5504.7763   -5980.3236 
  433200    303.26985   -45108.999    241.43714    -3905.633   -6052.5976   -5688.9138 
  433300    300.31028   -45111.901    239.08099   -3843.7352   -5881.9716   -5743.6155 
  433400    300.85398    -45104.53    239.51383   -3969.2738    -5921.413   -5889.0505 
  433500    299.15356   -45109.532    238.16011   -3976.6141   -6056.9683   -5907.8498 
  433600    297.16689   -45110.293     236.5785   -3994.8946   -5954.0737   -6050.9967 
  433700    299.72938   -45108.527    238.61853    -3969.281   -5862.6189   -5992.7403 
  433800    297.47307   -45106.688    236.82224   -3730.8971   -5466.6958   -5729.6038 
  433900    298.70377   -45107.134    237.80203   -4004.3405   -5966.8003    -5955.434 
  434000    298.84435   -45107.197    237.91395   -3838.9426     -6351.53   -5127.1396 
  434100    297.27776   -45106.167    236.66676   -3807.3806   -5738.9012    -5643.522 
  434200    299.08636   -45109.486    238.10661   -3707.9592   -5332.2372   -5789.7011 
  434300    304.50149   -45107.745    242.41766   -4043.0732   -6086.0569   -5900.2173 
  434400     303.0972   -45105.391    241.29969   -3823.0623   -5960.2353   -5478.6247 
  434500    302.42158   -45106.857    240.76182   -3959.0718    -6197.673   -5680.6379 
  434600    303.81257   -45111.191     241.8692   -3856.8778   -5706.2443   -5900.1338 
  434700    304.08521   -45110.224    242.08626   -3996.7857   -5867.3065   -5933.7217 
  434800    298.92437   -45111.682    237.97765    -3764.667   -5840.7922   -5645.8293 
  434900     298.8715   -45109.388    237.93556   -3879.4666   -5682.7652   -5930.0774 
  435000     301.6745   -45108.627    240.16706   -3958.7707    -5981.658   -5837.0227 
  435100     299.6304   -45110.761    238.53973   -4132.8233   -6231.6844    -6161.724 
  435200    299.03122   -45109.338    238.06271   -3791.8406   -5570.4249    -5867.948 
  435300     301.1647   -45104.774     239.7612   -3710.3262   -5589.1332   -5570.5099 
  435400    302.91061   -45104.957    241.15114   -3837.3342   -5338.9861   -6119.5597 
  435500    298.14297   -45109.968    237.35556   -3754.8737   -5485.5427   -5875.8488 
  435600    295.80408   -45112.765    235.49354   -3745.9417   -5523.0555   -5692.8108 
  435700    300.55466    -45106.34    239.27554        -3762   -5812.6221   -5542.7015 
  435800     298.9731   -45107.401    238.01644   -3932.2481    -6046.338   -5703.9799 
  435900     295.7427   -45107.146    235.44468   -3804.9109   -5960.2625   -5419.4974 
  436000    297.91975   -45109.498    237.17785   -3713.9149   -5504.8415   -5639.3678 
  436100    303.51795   -45113.628    241.63466   -3904.4893   -5745.2553   -5987.9911 
  436200    301.52052   -45109.589    240.04447   -3894.5535   -6014.8717   -5729.2817 
  436300     300.3069   -45109.389     239.0783   -3981.8992   -5632.0532   -6222.4463 
  436400    299.98817   -45106.988    238.82455    -3817.903   -5442.1447   -6078.3286 
  436500    302.77914   -45109.617    241.04648   -3679.2235   -5204.2533   -5789.8233 
  436600    298.09396   -45111.615    237.31655   -3730.8843   -5498.9601   -5705.7092 
  436700    304.05558   -45108.153    242.06267   -3765.8159   -5682.5002   -5593.3433 
  436800    302.80433   -45108.049    241.06654   -3685.3382   -5788.5456   -5323.7653 
  436900    294.81051   -45107.232    234.70255   -4001.4927   -5703.7365   -6221.2424 
  437000    304.74922   -45110.678    242.61488   -3960.6483   -5927.2315   -5961.3365 
  437100    302.41853    -45108.62     240.7594   -3848.6083   -5645.3037   -5922.3105 
  437200    299.53189   -45109.334     238.4613   -3904.7344   -5897.7083   -5681.2147 
  437300    300.25899    -45112.58    239.04016   -3685.6489   -5387.6341   -5686.0857 
  437400    296.54918   -45110.236    236.08673   -3705.4044   -5571.2759   -5661.1153 
  437500    300.88622   -45110.252     239.5395   -3778.5024   -5586.1865   -5721.3339 
  437600    300.14571    -45109.77    238.94997   -3897.7382   -6078.4775   -5587.3866 
  437700    303.59734   -45110.237    241.69786   -3962.3264   -5958.3854   -5992.4257 
  437800    301.24229   -45113.439    239.82297   -3950.3012   -6225.1352   -5683.2066 
  437900    301.26659   -45110.864    239.84232   -3734.5957   -5541.8277   -5688.6904 
  438000    298.47631    -45111.52    237.62094    -3781.902   -5738.1067   -5665.9742 
  438100    297.48615   -45106.971    236.83266   -3894.5026    -6065.395    -5582.962 
  438200    298.79849   -45110.827    237.87744   -3927.1376   -5863.8476   -5911.0918 
  438300    300.88307    -45103.21    239.53699   -3691.8233   -5693.1478   -5515.2535 
  438400    302.14832   -45111.948    240.54427   -3747.9456   -5306.7934   -5898.0431 
  438500    301.59259   -45109.566    240.10185   -3780.7297   -5613.5905   -5827.7615 
  438600    301.32919   -45114.659    239.89216   -3782.3701   -5830.3108   -5538.1617 
  438700    292.65015   -45105.913    232.98266   -3896.6313   -6065.1834   -5566.1029 
  438800    296.01294   -45106.245    235.65982   -3973.3174   -5978.9892   -5814.3504 
  438900    303.74822     -45111.4    241.81798   -3818.1487   -5482.1561   -5918.6045 
  439000     298.2177   -45111.923    237.41506   -3980.8426   -6085.2152   -5845.1349 
  439100    300.24958   -45111.741    239.03266   -3748.8145   -5597.2146     -5688.65 
  439200    300.56546    -45108.66    239.28414   -3944.7446    -6077.679   -5698.5086 
  439300    299.83765   -45109.332    238.70472   -3736.8828   -5601.7773   -5567.7191 
  439400    300.54169   -45107.973    239.26522   -3775.5547   -5911.8782   -5337.6434 
  439500    296.11326   -45104.974    235.73968   -3798.8989   -5590.8013   -5761.2959 
  439600     300.5001   -45107.585    239.23211    -3779.909   -5589.6124   -5708.2984 
  439700    301.66863   -45104.478    240.16239   -3856.1699   -5681.2925   -5755.1885 
  439800    300.35816   -45105.937    239.11911   -3786.5712   -5508.5283   -5899.7524 
  439900    299.03844   -45103.499    238.06846   -3763.3795   -5669.5405   -5590.8329 
  440000    294.66502   -45104.817    234.58672   -3710.7082   -5493.8194   -5611.0478 
  440100    295.74645    -45110.87    235.44766   -3981.1476   -5744.9287   -6120.8059 
  440200    300.55064   -45112.174    239.27234   -3863.5703   -6011.3303   -5552.6314 
  440300    302.07545   -45105.815    240.48627   -4021.0129   -5697.8758   -6319.2171 
  440400     302.2085   -45107.504    240.59219   -3943.4252   -5933.6349   -5872.3988 
  440500    300.01177   -45107.973    238.84334    -4011.149   -6123.0557   -5904.3261 
  440600    302.05432   -45111.656    240.46944   -3811.2465   -5744.0425   -5685.3148 
  440700    300.07419   -45110.951    238.89303   -3871.8131   -6160.3949   -5407.6857 
  440800    303.25849   -45108.053     241.4281   -3788.3673   -5586.3996   -5857.6737 
  440900     302.8505   -45106.516    241.10329   -3863.2597   -5578.2233   -6059.5175 
  441000    300.17645     -45110.5    238.97444    -3705.047   -5708.7873   -5372.3714 
  441100    302.26859   -45110.305    240.64003   -3718.3737   -5505.0466   -5651.1843 
  441200    298.14818   -45107.266    237.35971   -3823.8081   -5737.0366   -5724.9848 
  441300    298.43858   -45111.012     237.5909   -3780.5222   -5744.7553   -5615.7737 
  441400    300.34118   -45103.312    239.10559    -3761.438   -5728.0868   -5500.0409 
  441500    300.84356   -45107.086    239.50554   -3713.6111   -6103.0899   -4988.9008 
  441600    301.47745   -45107.403    240.01019   -3685.6898   -5563.6386   -5471.9691 
  441700    298.75233    -45109.55    237.84068   -3727.8934   -5749.7206   -5481.9414 
  441800    297.70569   -45116.805    237.00744   -3672.7473   -5528.7073    -5492.405 
  441900    296.63031   -45113.281    236.15131   -3780.3337   -5735.7074   -5709.9004 
  442000    298.74251   -45111.351    237.83286   -3687.1784   -5615.9992    -5463.717 
  442100    300.90022   -45112.738    239.55065   -3879.9677   -6114.1053   -5540.2136 
  442200    301.47625   -45113.258    240.00923   -3747.2455   -6045.3393   -5250.6971 
  442300    300.54671   -45111.168    239.26921   -3827.6725   -5886.5752   -5674.0162 
  442400    302.58473   -45110.818    240.89171   -3863.2711   -5896.5029    -5627.801 
  442500    298.40748   -45112.077    237.56615   -3681.2477   -5450.5632   -5589.4029 
  442600    299.94857   -45109.636    238.79303   -3735.9781   -5748.8251   -5494.4609 
  442700    298.99074   -45107.326    238.03048   -3642.9839   -5512.1381   -5480.4862 
  442800    301.97767   -45112.076    240.40842   -3832.9869   -5992.8728   -5407.8089 
  442900    301.23185    -45109.21    239.81466   -3671.2682   -5499.6767   -5638.6583 
  443000    299.13624   -45107.573    238.14632   -3767.8744   -5384.5835   -5810.7571 
  443100     304.6443   -45110.665    242.53136   -3790.1443   -5638.1252   -5819.1045 
  443200    299.02821   -45109.293    238.06032   -3728.5613   -5572.2426    -5552.926 
  443300     299.8172   -45107.055    238.68844   -3603.1742   -5488.7155   -5346.4461 
  443400    299.68974   -45110.377    238.58697   -3691.8336   -5521.1089    -5517.833 
  443500     299.6436   -45113.254    238.55024   -3791.5334   -5546.2224   -5733.8868 
  443600    297.95634   -45107.627    237.20698   -3775.2369   -5427.0514   -5920.5762 
  443700    302.50507   -45107.901    240.82829   -3872.4655   -5664.5426    -5921.011 
  443800    301.27005   -45108.771    239.84508   -3820.3754   -5777.6627   -5771.8868 
  443900    299.51546   -45105.717    238.44822   -3779.7571   -5103.5063   -6178.0029 
  444000    301.15789   -45107.398    239.75578   -3941.9553   -6078.7674   -5648.4876 
  444100    302.20406   -45106.546    240.58865   -3622.9362   -5271.5271   -5639.8905 
  444200    294.93268   -45109.126    234.79981   -3583.1668   -5248.6227   -5509.2068 
  444300    301.63105   -45111.216    240.13247   -3725.6363   -5271.1296   -5869.3955 
  444400    301.22771   -45111.656    239.81137   -3875.1878   -5825.2265   -5815.8081 
  444500    298.98757   -45109.697    238.02796   -3896.9007   -5829.4143   -5962.1548 
  444600    300.68706   -45109.779    239.38095    -4018.642   -5644.5188   -6380.7234 
  444700    300