13104
Atoms. Timestep: 0
1 -7.62011 17.6724 4.81997
1 0.129148 2.46072 4.81997
1 -3.87464 7.60586 4.81997
1 15.6277 12.751 4.81997
1 -1.1624 18.5673 4.81997
1 6.58686 3.35553 4.81997
1 2.58308 8.50066 4.81997
1 9.29911 14.3169 4.81997
1 5.29532 19.4621 4.81997
1 13.0446 4.25033 4.81997
1 9.0408 9.39547 4.81997
1 15.4985 10.2903 4.81997
1 -5.55365 16.3302 4.81997
1 2.19562 1.1185 4.81997
1 -1.80817 6.26365 4.81997
1 -5.81195 11.4088 4.81997
1 0.904074 17.225 4.81997
1 8.65334 2.01331 4.81997
1 4.64955 7.15846 4.81997
1 0.645762 12.3036 4.81997
1 7.36179 18.1198 4.81997
1 15.1111 2.90811 4.81997
1 11.1073 8.05326 4.81997
1 7.10348 13.1984 4.81997
1 -5.6828 13.8695 4.81997
1 -9.68659 19.0147 4.81997
1 -1.93732 3.80293 4.81997
1 17.565 8.94807 4.81997
1 0.774923 14.7643 4.81997
1 -3.22887 19.9095 4.81997
1 4.5204 4.69773 4.81997
1 0.516609 9.84288 4.81997
1 7.23264 15.6591 4.81997
1 14.9819 0.447397 4.81997
1 10.9781 5.59254 4.81997
1 6.97433 10.7377 4.81997
1 17.4358 6.48735 4.81997
1 13.432 11.6325 4.81997
1 -7.74926 15.2117 4.81997
1 0 0 4.81997
1 19.5023 5.14513 4.81997
1 -1.29155 16.1065 4.81997
1 6.45771 0.894803 4.81997
1 2.45393 6.03994 4.81997
1 -1.54986 11.1851 4.81997
1 5.16617 17.0013 4.81997
1 12.9154 1.78961 4.81997
1 8.91164 6.93475 4.81997
1 4.90786 12.0799 4.81997
1 19.3731 2.68442 4.81997
1 15.3694 7.82956 4.81997
1 11.3656 12.9747 4.81997
1 13.6904 16.5539 4.81997
1 21.4396 1.3422 4.81997
1 -3.35802 17.4487 4.81997
1 4.39124 2.23701 4.81997
1 0.387461 7.38215 4.81997
1 -3.61633 12.5273 4.81997
1 3.0997 18.3436 4.81997
1 10.849 3.13182 4.81997
1 6.84518 8.27696 4.81997
1 2.84139 13.4221 4.81997
1 9.55741 19.2384 4.81997
1 17.3067 4.02663 4.81997
1 13.3029 9.17177 4.81997
1 11.6239 17.8961 4.81997
1 -1.42071 13.6458 4.81997
1 -5.42449 18.791 4.81997
1 2.32477 3.57923 4.81997
1 -1.67901 8.72437 4.81997
1 5.03701 14.5406 4.81997
1 1.03323 19.6858 4.81997
1 8.78249 4.47403 4.81997
1 4.77871 9.61917 4.81997
1 11.4947 15.4354 4.81997
1 19.244 0.223696 4.81997
1 15.2402 5.36884 4.81997
1 11.2364 10.514 4.81997
1 13.5612 14.0932 4.81997
1 -3.48718 14.988 4.81997
1 -7.49096 20.1332 4.81997
1 0.258302 4.92143 4.81997
1 -3.74548 10.0666 4.81997
1 2.97054 15.8828 4.81997
1 10.7198 0.671097 4.81997
1 6.71602 5.81624 4.81997
1 2.71223 10.9614 4.81997
1 9.42827 16.7776 4.81997
1 17.1775 1.56591 4.81997
1 13.1737 6.71105 4.81997
1 9.16995 11.8562 4.81997
1 -2.84141 13.7204 4.81997
1 -6.84519 18.8655 4.81997
1 0.904073 3.65379 4.81997
1 -3.09971 8.79893 4.81997
1 3.61632 14.6152 4.81997
1 -0.387471 19.7603 4.81997
1 7.36179 4.5486 4.81997
1 3.35801 9.69374 4.81997
1 10.074 15.51 4.81997
1 17.8233 0.298264 4.81997
1 13.8195 5.44341 4.81997
1 9.81573 10.5885 4.81997
1 12.2697 16.6285 4.81997
1 -4.77872 17.5233 4.81997
1 2.97055 2.31157 4.81997
1 -1.03324 7.45672 4.81997
1 -5.03702 12.6019 4.81997
1 1.679 18.4181 4.81997
1 9.42826 3.20638 4.81997
1 5.42447 8.35153 4.81997
1 12.1405 14.1678 4.81997
1 8.13672 19.3129 4.81997
1 15.886 4.10119 4.81997
1 11.8822 9.24634 4.81997
1 -4.90787 15.0626 4.81997
1 -8.91166 20.2077 4.81997
1 -1.1624 4.996 4.81997
1 -5.16618 10.1411 4.81997
1 1.54985 15.9574 4.81997
1 9.29911 0.745671 4.81997
1 5.29532 5.89081 4.81997
1 1.29153 11.036 4.81997
1 8.00756 16.8522 4.81997
1 15.7568 1.64048 4.81997
1 11.753 6.78562 4.81997
1 7.74926 11.9308 4.81997
1 14.207 12.8256 4.81997
1 -6.97434 16.4048 4.81997
1 0.774919 1.19307 4.81997
1 -3.22887 6.33821 4.81997
1 16.2734 11.4834 4.81997
1 -0.516623 17.2996 4.81997
1 7.23264 2.08788 4.81997
1 3.22886 7.23302 4.81997
1 -0.774936 12.3782 4.81997
1 5.9411 18.1944 4.81997
1 13.6904 2.98269 4.81997
1 9.68657 8.12783 4.81997
1 5.68278 13.273 4.81997
1 16.1443 9.02263 4.81997
1 -9.04081 17.747 4.81997
1 -1.29155 2.53528 4.81997
1 18.2108 7.68042 4.81997
1 1.42069 13.4967 4.81997
1 -2.58309 18.6418 4.81997
1 5.16617 3.43009 4.81997
1 1.16238 8.57523 4.81997
1 7.87841 14.3915 4.81997
1 3.87462 19.5366 4.81997
1 11.6239 4.3249 4.81997
1 7.6201 9.47004 4.81997
1 18.0816 5.2197 4.81997
1 14.0778 10.3648 4.81997
1 -7.1035 13.9441 4.81997
1 12.3988 19.0892 4.81997
1 20.1481 3.8775 4.81997
1 -0.645776 14.8389 4.81997
1 -4.64957 19.984 4.81997
1 3.0997 4.7723 4.81997
1 -0.904087 9.91744 4.81997
1 5.81194 15.7337 4.81997
1 13.5612 0.521965 4.81997
1 9.55742 5.66711 4.81997
1 5.55363 10.8123 4.81997
1 20.0189 1.41677 4.81997
1 16.0151 6.56192 4.81997
1 12.0114 11.7071 4.81997
1 14.3361 15.2863 4.81997
1 22.0854 0.074559 4.81997
1 -2.71225 16.1811 4.81997
1 5.03701 0.969366 4.81997
1 1.03322 6.11451 4.81997
1 -2.97056 11.2597 4.81997
1 3.74547 17.0759 4.81997
1 11.4947 1.86417 4.81997
1 7.49094 7.00932 4.81997
1 3.48716 12.1545 4.81997
1 10.2032 17.9707 4.81997
1 17.9524 2.75898 4.81997
1 13.9487 7.90413 4.81997
1 9.94488 13.0493 4.81997
1 -7.23265 15.6591 1.60666
1 0 0 1.60666
1 18.9857 4.69773 1.60666
1 -0.904086 17.225 1.60666
1 6.32855 1.56591 1.60666
1 1.80815 6.26364 1.60666
1 -2.71225 10.9614 1.60666
1 9.94488 14.0932 1.60666
1 5.42448 18.791 1.60666
1 12.6571 3.13182 1.60666
1 8.13672 7.82956 1.60666
1 3.61632 12.5273 1.60666
1 14.4653 9.39547 1.60666
1 -5.03702 14.5406 1.60666
1 -9.55743 19.2384 1.60666
1 21.1813 3.57923 1.60666
1 1.29154 16.1065 1.60666
1 8.52418 0.447401 1.60666
1 4.00378 5.14513 1.60666
1 -0.516626 9.84288 1.60666
1 7.6201 17.6724 1.60666
1 14.8527 2.01331 1.60666
1 10.3323 6.71105 1.60666
1 5.81194 11.4088 1.60666
1 16.6609 8.27696 1.60666
1 12.1405 12.9747 1.60666
1 -9.42827 16.7776 1.60666
1 21.3105 1.1185 1.60666
1 1.42069 13.6458 1.60666
1 -3.09971 18.3436 1.60666
1 4.13293 2.68442 1.60666
1 -0.387469 7.38216 1.60666
1 -4.90787 12.0799 1.60666
1 7.74925 15.2117 1.60666
1 3.22885 19.9095 1.60666
1 10.4615 4.25033 1.60666
1 5.94109 8.94807 1.60666
1 16.7901 5.81625 1.60666
1 12.2697 10.514 1.60666
1 11.8822 17.8961 1.60666
1 -0.774931 14.7643 1.60666
1 -5.29534 19.4621 1.60666
1 1.93731 3.80293 1.60666
1 -2.5831 8.50066 1.60666
1 -7.1035 13.1984 1.60666
1 5.55363 16.3302 1.60666
1 12.7863 0.671102 1.60666
1 8.26587 5.36884 1.60666
1 3.74547 10.0666 1.60666
1 19.1148 2.23701 1.60666
1 14.5944 6.93476 1.60666
1 10.074 11.6325 1.60666
1 14.207 14.3169 1.60666
1 -2.97055 15.8828 1.60666
1 4.26209 0.223696 1.60666
1 -0.258313 4.92143 1.60666
1 -4.77872 9.61917 1.60666
1 3.35801 17.4487 1.60666
1 10.5907 1.78961 1.60666
1 6.07025 6.48735 1.60666
1 1.54985 11.1851 1.60666
1 9.68657 19.0147 1.60666
1 16.9192 3.35552 1.60666
1 12.3988 8.05326 1.60666
1 7.87841 12.751 1.60666
1 -5.16618 17.0013 1.60666
1 2.06646 1.3422 1.60666
1 -2.45394 6.03994 1.60666
1 16.5318 10.7377 1.60666
1 5.68279 13.8695 1.60666
1 1.16238 18.5673 1.60666
1 8.39503 2.90812 1.60666
1 3.87463 7.60586 1.60666
1 -0.64578 12.3036 1.60666
1 12.0114 15.4354 1.60666
1 7.49095 20.1332 1.60666
1 14.7236 4.47403 1.60666
1 10.2032 9.17177 1.60666
1 -7.3618 18.1199 1.60666
1 -0.129159 2.46072 1.60666
1 18.8565 7.15845 1.60666
1 3.48716 14.988 1.60666
1 -1.03324 19.6858 1.60666
1 6.1994 4.02663 1.60666
1 1.67899 8.72437 1.60666
1 -2.8414 13.4221 1.60666
1 9.81573 16.5539 1.60666
1 17.0484 0.894803 1.60666
1 12.528 5.59254 1.60666
1 8.00756 10.2903 1.60666
1 14.3361 11.8562 1.60666
1 -8.00758 16.8522 1.60666
1 22.7312 1.19307 1.60666
1 2.84139 13.7204 1.60666
1 -1.67901 18.4181 1.60666
1 5.55363 2.75898 1.60666
1 1.03322 7.45672 1.60666
1 -3.48717 12.1545 1.60666
1 9.16996 15.2863 1.60666
1 4.64955 19.984 1.60666
1 11.8822 4.3249 1.60666
1 7.36179 9.02264 1.60666
1 18.2108 5.89081 1.60666
1 13.6904 10.5885 1.60666
1 -5.81195 15.7337 1.60666
1 1.42069 0.074559 1.60666
1 20.4064 4.7723 1.60666
1 0.516612 17.2996 1.60666
1 7.74926 1.64047 1.60666
1 3.22885 6.33821 1.60666
1 -1.29155 11.036 1.60666
1 11.3656 14.1678 1.60666
1 6.84518 18.8655 1.60666
1 14.0778 3.20639 1.60666
1 9.55742 7.90413 1.60666
1 5.03702 12.6019 1.60666
1 15.886 9.47004 1.60666
1 -10.2032 17.9707 1.60666
1 20.5355 2.31158 1.60666
1 0.645769 14.8389 1.60666
1 -3.87464 19.5366 1.60666
1 3.35801 3.87749 1.60666
1 -1.1624 8.57523 1.60666
1 -5.6828 13.273 1.60666
1 6.97433 16.4048 1.60666
1 14.207 0.745671 1.60666
1 9.68657 5.44341 1.60666
1 5.16617 10.1411 1.60666
1 16.0151 7.00932 1.60666
1 11.4947 11.7071 1.60666
1 -7.87842 14.3915 1.60666
1 11.1073 19.0892 1.60666
1 -1.54985 15.9574 1.60666
1 5.68278 0.298264 1.60666
1 1.16238 4.996 1.60666
1 -3.35802 9.69374 1.60666
1 4.77871 17.5233 1.60666
1 12.0114 1.86418 1.60666
1 7.49095 6.56192 1.60666
1 2.97055 11.2597 1.60666
1 18.3399 3.43009 1.60666
1 13.8195 8.12783 1.60666
1 9.2991 12.8256 1.60666
1 13.4321 15.51 1.60666
1 -3.74548 17.0759 1.60666
1 3.48716 1.41677 1.60666
1 -1.03324 6.11451 1.60666
1 -5.55364 10.8123 1.60666
1 7.10349 13.9441 1.60666
1 2.58308 18.6418 1.60666
1 9.81572 2.98269 1.60666
1 5.29532 7.68043 1.60666
1 0.774919 12.3782 1.60666
1 8.91165 20.2077 1.60666
1 16.1443 4.5486 1.60666
1 11.6239 9.24634 1.60666
1 -1.4207 13.4967 1.60666
1 -5.9411 18.1944 1.60666
1 1.29153 2.53529 1.60666
1 -3.22886 7.23302 1.60666
1 15.7568 11.9308 1.60666
1 4.90786 15.0626 1.60666
1 0.387457 19.7603 1.60666
1 7.6201 4.10119 1.60666
1 3.0997 8.79893 1.60666
1 11.2364 16.6285 1.60666
1 18.4691 0.969371 1.60666
1 13.9487 5.66711 1.60666
1 9.42826 10.3648 1.60666
1 -3.61633 14.6152 1.60666
1 -8.13673 19.3129 1.60666
1 -0.904092 3.65379 1.60666
1 18.0816 8.35153 1.60666
1 2.71224 16.1811 1.60666
1 9.94488 0.521965 1.60666
1 5.42447 5.2197 1.60666
1 0.904076 9.91744 1.60666
1 9.0408 17.747 1.60666
1 16.2734 2.08788 1.60666
1 11.753 6.78562 1.60666
1 7.23264 11.4834 1.60666
1 13.5612 13.0493 1.60666
1 -19.3732 38.0293 4.81997
1 -11.6239 22.8176 4.81997
1 -15.6277 27.9627 4.81997
1 3.87463 33.1079 4.81997
1 -12.9154 38.9241 4.81997
1 -5.16619 23.7124 4.81997
1 -9.16997 28.8575 4.81997
1 -2.45394 34.6738 4.81997
1 -6.45773 39.8189 4.81997
1 1.29153 24.6072 4.81997
1 -2.71225 29.7523 4.81997
1 3.74547 30.6472 4.81997
1 -17.3067 36.6871 4.81997
1 -9.55743 21.4754 4.81997
1 -13.5612 26.6205 4.81997
1 -17.565 31.7657 4.81997
1 -10.849 37.5819 4.81997
1 -3.09971 22.3702 4.81997
1 -7.1035 27.5153 4.81997
1 -11.1073 32.6605 4.81997
1 -4.39126 38.4767 4.81997
1 3.35801 23.265 4.81997
1 -0.645782 28.4101 4.81997
1 -4.64957 33.5553 4.81997
1 -17.4358 34.2264 4.81997
1 -21.4396 39.3715 4.81997
1 -13.6904 24.1598 4.81997
1 5.81194 29.3049 4.81997
1 -10.9781 35.1212 4.81997
1 -14.9819 40.2663 4.81997
1 -7.23265 25.0546 4.81997
1 -11.2364 30.1998 4.81997
1 -4.52041 36.016 4.81997
1 3.22885 20.8043 4.81997
1 -0.774933 25.9494 4.81997
1 -4.77872 31.0946 4.81997
1 5.68279 26.8442 4.81997
1 1.679 31.9894 4.81997
1 -19.5023 35.5686 4.81997
1 -11.753 20.3569 4.81997
1 7.74926 25.502 4.81997
1 -13.0446 36.4634 4.81997
1 -5.29534 21.2517 4.81997
1 -9.29912 26.3968 4.81997
1 -13.3029 31.542 4.81997
1 -6.58688 37.3582 4.81997
1 1.16238 22.1465 4.81997
1 -2.84141 27.2916 4.81997
1 -6.84519 32.4368 4.81997
1 7.62009 23.0413 4.81997
1 3.61631 28.1864 4.81997
1 -0.387477 33.3316 4.81997
1 1.93731 36.9108 4.81997
1 9.68657 21.6991 4.81997
1 -15.1111 37.8056 4.81997
1 -7.3618 22.5939 4.81997
1 -11.3656 27.739 4.81997
1 -15.3694 32.8842 4.81997
1 -8.65335 38.7004 4.81997
1 -0.904087 23.4887 4.81997
1 -4.90787 28.6338 4.81997
1 -8.91166 33.779 4.81997
1 -2.19563 39.5952 4.81997
1 5.55363 24.3835 4.81997
1 1.54985 29.5286 4.81997
1 -0.129159 38.253 4.81997
1 -13.1738 34.0027 4.81997
1 -17.1775 39.1478 4.81997
1 -9.42828 23.9361 4.81997
1 -13.4321 29.0812 4.81997
1 -6.71604 34.8975 4.81997
1 -10.7198 40.0426 4.81997
1 -2.97056 24.8309 4.81997
1 -6.97434 29.976 4.81997
1 -0.258312 35.7923 4.81997
1 7.49095 20.5806 4.81997
1 3.48716 25.7257 4.81997
1 -0.516623 30.8709 4.81997
1 1.80815 34.4501 4.81997
1 -15.2402 35.3449 4.81997
1 -19.244 40.49 4.81997
1 -11.4947 25.2783 4.81997
1 -15.4985 30.4235 4.81997
1 -8.78251 36.2397 4.81997
1 -1.03324 21.028 4.81997
1 -5.03703 26.1731 4.81997
1 -9.04082 31.3183 4.81997
1 -2.32478 37.1345 4.81997
1 5.42448 21.9228 4.81997
1 1.42069 27.0679 4.81997
1 -2.58309 32.2131 4.81997
1 -14.5945 34.0773 4.81997
1 -18.5982 39.2224 4.81997
1 -10.849 24.0107 4.81997
1 -14.8528 29.1558 4.81997
1 -8.13673 34.9721 4.81997
1 -12.1405 40.1172 4.81997
1 -4.39126 24.9055 4.81997
1 -8.39504 30.0506 4.81997
1 -1.67901 35.8669 4.81997
1 6.07025 20.6551 4.81997
1 2.06646 25.8003 4.81997
1 -1.93732 30.9454 4.81997
1 0.516613 36.9854 4.81997
1 -16.5318 37.8802 4.81997
1 -8.7825 22.6684 4.81997
1 -12.7863 27.8136 4.81997
1 -16.7901 32.9587 4.81997
1 -10.074 38.775 4.81997
1 -2.32478 23.5633 4.81997
1 -6.32857 28.7084 4.81997
1 0.38746 34.5247 4.81997
1 -3.61633 39.6698 4.81997
1 4.13294 24.4581 4.81997
1 0.129146 29.6032 4.81997
1 -16.6609 35.4195 4.81997
1 -20.6647 40.5646 4.81997
1 -12.9154 25.3529 4.81997
1 -16.9192 30.498 4.81997
1 -10.2032 36.3143 4.81997
1 -2.45394 21.1025 4.81997
1 -6.45772 26.2477 4.81997
1 -10.4615 31.3928 4.81997
1 -3.74548 37.2091 4.81997
1 4.00378 21.9974 4.81997
1 -6e-06 27.1425 4.81997
1 -4.00379 32.2876 4.81997
1 2.45393 33.1824 4.81997
1 -18.7274 36.7617 4.81997
1 -10.9781 21.5499 4.81997
1 -14.9819 26.6951 4.81997
1 4.52039 31.8402 4.81997
1 -12.2697 37.6565 4.81997
1 -4.52041 22.4448 4.81997
1 -8.52419 27.5899 4.81997
1 -12.528 32.735 4.81997
1 -5.81195 38.5513 4.81997
1 1.9373 23.3396 4.81997
1 -2.06648 28.4847 4.81997
1 -6.07026 33.6298 4.81997
1 4.39124 29.3795 4.81997
1 -20.7939 38.1039 4.81997
1 -13.0446 22.8922 4.81997
1 6.45771 28.0373 4.81997
1 -10.3324 33.8536 4.81997
1 -14.3361 38.9987 4.81997
1 -6.58688 23.787 4.81997
1 -10.5907 28.9321 4.81997
1 -3.87464 34.7484 4.81997
1 -7.87842 39.8935 4.81997
1 -0.129162 24.6818 4.81997
1 -4.13295 29.8269 4.81997
1 6.32856 25.5766 4.81997
1 2.32477 30.7217 4.81997
1 -18.8565 34.301 4.81997
1 0.645765 39.4461 4.81997
1 8.39502 24.2344 4.81997
1 -12.3988 35.1958 4.81997
1 -16.4026 40.3409 4.81997
1 -8.65335 25.1292 4.81997
1 -12.6571 30.2743 4.81997
1 -5.94111 36.0906 4.81997
1 1.80815 20.8788 4.81997
1 -2.19563 26.024 4.81997
1 -6.19941 31.1691 4.81997
1 8.26588 21.7736 4.81997
1 4.26209 26.9188 4.81997
1 0.258304 32.0639 4.81997
1 2.58308 35.6432 4.81997
1 10.3323 20.4314 4.81997
1 -14.4653 36.538 4.81997
1 -6.71604 21.3262 4.81997
1 -10.7198 26.4714 4.81997
1 -14.7236 31.6165 4.81997
1 -8.00758 37.4328 4.81997
1 -0.258313 22.221 4.81997
1 -4.2621 27.3662 4.81997
1 -8.26589 32.5113 4.81997
1 -1.54986 38.3276 4.81997
1 6.1994 23.1159 4.81997
1 2.19562 28.261 4.81997
1 -1.80817 33.4061 4.81997
1 -18.9857 36.016 1.60666
1 -11.753 20.3569 1.60666
1 7.23264 25.0546 1.60666
1 -12.6571 37.5819 1.60666
1 -5.42449 21.9228 1.60666
1 -9.94489 26.6205 1.60666
1 -14.4653 31.3183 1.60666
1 -1.80817 34.4501 1.60666
1 -6.32857 39.1478 1.60666
1 0.904073 23.4887 1.60666
1 -3.61633 28.1864 1.60666
1 -8.13673 32.8842 1.60666
1 2.71224 29.7523 1.60666
1 -16.7901 34.8975 1.60666
1 -21.3105 39.5952 1.60666
1 9.42826 23.9361 1.60666
1 -10.4615 36.4634 1.60666
1 -3.22887 20.8043 1.60666
1 -7.74927 25.502 1.60666
1 -12.2697 30.1998 1.60666
1 -4.13295 38.0293 1.60666
1 3.09969 22.3702 1.60666
1 -1.42071 27.0679 1.60666
1 -5.94111 31.7657 1.60666
1 4.90786 28.6338 1.60666
1 0.387456 33.3316 1.60666
1 -21.1813 37.1345 1.60666
1 9.55741 21.4754 1.60666
1 -10.3324 34.0027 1.60666
1 -14.8528 38.7004 1.60666
1 -7.62011 23.0413 1.60666
1 -12.1405 27.739 1.60666
1 -16.6609 32.4368 1.60666
1 -4.0038 35.5686 1.60666
1 -8.5242 40.2663 1.60666
1 -1.29155 24.6072 1.60666
1 -5.81196 29.3049 1.60666
1 5.03701 26.1731 1.60666
1 0.516618 30.8709 1.60666
1 0.129151 38.253 1.60666
1 -12.528 35.1212 1.60666
1 -17.0484 39.8189 1.60666
1 -9.81574 24.1598 1.60666
1 -14.3361 28.8575 1.60666
1 -18.8565 33.5553 1.60666
1 -6.19942 36.6871 1.60666
1 1.03323 21.028 1.60666
1 -3.48717 25.7257 1.60666
1 -8.00758 30.4234 1.60666
1 7.36179 22.5939 1.60666
1 2.84139 27.2916 1.60666
1 -1.67901 31.9894 1.60666
1 2.45393 34.6738 1.60666
1 -14.7236 36.2397 1.60666
1 -7.49096 20.5806 1.60666
1 -12.0114 25.2783 1.60666
1 -16.5318 29.976 1.60666
1 -8.39504 37.8056 1.60666
1 -1.16239 22.1465 1.60666
1 -5.6828 26.8442 1.60666
1 -10.2032 31.542 1.60666
1 -2.06648 39.3715 1.60666
1 5.16616 23.7124 1.60666
1 0.645766 28.4101 1.60666
1 -3.87464 33.1079 1.60666
1 -16.9192 37.3582 1.60666
1 -9.68658 21.6991 1.60666
1 -14.207 26.3968 1.60666
1 4.77871 31.0946 1.60666
1 -6.07026 34.2264 1.60666
1 -10.5907 38.9241 1.60666
1 -3.35802 23.265 1.60666
1 -7.87842 27.9627 1.60666
1 -12.3988 32.6605 1.60666
1 0.258308 35.7923 1.60666
1 -4.2621 40.49 1.60666
1 2.97054 24.8309 1.60666
1 -1.54985 29.5286 1.60666
1 -19.1149 38.4767 1.60666
1 -11.8822 22.8176 1.60666
1 7.10349 27.5153 1.60666
1 -8.26589 35.3449 1.60666
1 -12.7863 40.0426 1.60666
1 -5.55365 24.3835 1.60666
1 -10.0741 29.0812 1.60666
1 -14.5945 33.779 1.60666
1 -1.93732 36.9108 1.60666
1 5.29532 21.2517 1.60666
1 0.774922 25.9494 1.60666
1 -3.74548 30.6472 1.60666
1 2.58308 32.2131 1.60666
1 -19.7606 37.2091 1.60666
1 10.9781 21.5499 1.60666
1 -8.91166 34.0773 1.60666
1 -13.4321 38.775 1.60666
1 -6.19941 23.1159 1.60666
1 -10.7198 27.8136 1.60666
1 -15.2402 32.5113 1.60666
1 -2.58309 35.6432 1.60666
1 -7.1035 40.3409 1.60666
1 0.129151 24.6818 1.60666
1 -4.39126 29.3795 1.60666
1 6.45772 26.2477 1.60666
1 1.93731 30.9454 1.60666
1 -17.565 36.0906 1.60666
1 -10.3324 20.4314 1.60666
1 8.65334 25.1292 1.60666
1 -11.2364 37.6565 1.60666
1 -4.00379 21.9973 1.60666
1 -8.52419 26.6951 1.60666
1 -13.0446 31.3928 1.60666
1 -0.387467 34.5247 1.60666
1 -4.90787 39.2224 1.60666
1 2.32477 23.5633 1.60666
1 -2.19563 28.261 1.60666
1 -6.71603 32.9587 1.60666
1 4.13294 29.8269 1.60666
1 -21.9562 38.3276 1.60666
1 8.78249 22.6685 1.60666
1 -11.1073 35.1958 1.60666
1 -15.6277 39.8935 1.60666
1 -8.39504 24.2344 1.60666
1 -12.9154 28.9321 1.60666
1 -17.4358 33.6298 1.60666
1 -4.77872 36.7617 1.60666
1 2.45392 21.1025 1.60666
1 -2.06647 25.8003 1.60666
1 -6.58688 30.498 1.60666
1 4.26209 27.3662 1.60666
1 -0.258321 32.0639 1.60666
1 -19.6315 34.7484 1.60666
1 -0.645779 39.4461 1.60666
1 -13.3029 36.3143 1.60666
1 -6.07026 20.6551 1.60666
1 -10.5907 25.3529 1.60666
1 -15.1111 30.0506 1.60666
1 -6.97434 37.8802 1.60666
1 0.258305 22.2211 1.60666
1 -4.2621 26.9188 1.60666
1 -8.7825 31.6165 1.60666
1 6.58686 23.787 1.60666
1 2.06646 28.4847 1.60666
1 -2.45394 33.1824 1.60666
1 1.679 35.8669 1.60666
1 -15.4985 37.4328 1.60666
1 -8.26589 21.7736 1.60666
1 -12.7863 26.4714 1.60666
1 -17.3067 31.1691 1.60666
1 -4.64956 34.301 1.60666
1 -9.16996 38.9987 1.60666
1 -1.93733 23.3396 1.60666
1 -6.45773 28.0373 1.60666
1 -10.9781 32.735 1.60666
1 -2.8414 40.5646 1.60666
1 4.39124 24.9055 1.60666
1 -0.129161 29.6032 1.60666
1 -13.1738 33.8536 1.60666
1 -17.6941 38.5513 1.60666
1 -10.4615 22.8922 1.60666
1 -14.9819 27.5899 1.60666
1 4.00378 32.2876 1.60666
1 -6.84519 35.4195 1.60666
1 -11.3656 40.1172 1.60666
1 -4.13295 24.4581 1.60666
1 -8.65335 29.1558 1.60666
1 -0.516618 36.9854 1.60666
1 6.71602 21.3262 1.60666
1 2.19562 26.024 1.60666
1 -2.32478 30.7217 1.60666
1 -15.3694 34.9721 1.60666
1 -19.8898 39.6698 1.60666
1 -12.6571 24.0107 1.60666
1 6.32856 28.7084 1.60666
1 -9.04081 36.538 1.60666
1 -1.80817 20.8788 1.60666
1 -6.32857 25.5766 1.60666
1 -10.849 30.2743 1.60666
1 -2.71225 38.1039 1.60666
1 4.52039 22.4448 1.60666
1 -1.1e-05 27.1425 1.60666
1 -4.52041 31.8402 1.60666
1 1.80815 33.4061 1.60666
1 -31.1262 58.3862 4.81997
1 -23.3769 43.1745 4.81997
1 -27.3807 48.3196 4.81997
1 -7.87842 53.4647 4.81997
1 -24.6685 59.281 4.81997
1 -16.9192 44.0693 4.81997
1 -20.923 49.2144 4.81997
1 -14.207 55.0307 4.81997
1 -18.2108 60.1758 4.81997
1 -10.4615 44.9641 4.81997
1 -14.4653 50.1092 4.81997
1 -8.00758 51.004 4.81997
1 -29.0597 57.044 4.81997
1 -21.3105 41.8322 4.81997
1 -25.3143 46.9774 4.81997
1 -29.318 52.1225 4.81997
1 -22.602 57.9388 4.81997
1 -14.8528 42.7271 4.81997
1 -18.8565 47.8722 4.81997
1 -22.8603 53.0173 4.81997
1 -16.1443 58.8336 4.81997
1 -8.39504 43.6219 4.81997
1 -12.3988 48.767 4.81997
1 -16.4026 53.9122 4.81997
1 -29.1889 54.5833 4.81997
1 -33.1927 59.7284 4.81997
1 -25.4434 44.5167 4.81997
1 -5.94111 49.6618 4.81997
1 -22.7312 55.4781 4.81997
1 -26.735 60.6232 4.81997
1 -18.9857 45.4115 4.81997
1 -22.9895 50.5566 4.81997
1 -16.2735 56.3729 4.81997
1 -8.5242 41.1611 4.81997
1 -12.528 46.3063 4.81997
1 -16.5318 51.4514 4.81997
1 -6.07026 47.2011 4.81997
1 -10.074 52.3462 4.81997
1 -31.2554 55.9255 4.81997
1 -23.5061 40.7137 4.81997
1 -4.00379 45.8589 4.81997
1 -24.7976 56.8203 4.81997
1 -17.0484 41.6086 4.81997
1 -21.0522 46.7537 4.81997
1 -25.056 51.8988 4.81997
1 -18.3399 57.7151 4.81997
1 -10.5907 42.5034 4.81997
1 -14.5945 47.6485 4.81997
1 -18.5982 52.7936 4.81997
1 -4.13295 43.3982 4.81997
1 -8.13673 48.5433 4.81997
1 -12.1405 53.6885 4.81997
1 -9.81574 57.2677 4.81997
1 -2.06647 42.056 4.81997
1 -26.8641 58.1625 4.81997
1 -19.1149 42.9508 4.81997
1 -23.1186 48.0959 4.81997
1 -27.1224 53.241 4.81997
1 -20.4064 59.0573 4.81997
1 -12.6571 43.8456 4.81997
1 -16.6609 48.9907 4.81997
1 -20.6647 54.1359 4.81997
1 -13.9487 59.9521 4.81997
1 -6.19942 44.7404 4.81997
1 -10.2032 49.8855 4.81997
1 -11.8822 58.6099 4.81997
1 -24.9268 54.3596 4.81997
1 -28.9306 59.5047 4.81997
1 -21.1813 44.293 4.81997
1 -25.1851 49.4381 4.81997
1 -18.4691 55.2544 4.81997
1 -22.4729 60.3995 4.81997
1 -14.7236 45.1878 4.81997
1 -18.7274 50.3329 4.81997
1 -12.0114 56.1492 4.81997
1 -4.26209 40.9374 4.81997
1 -8.26589 46.0826 4.81997
1 -12.2697 51.2277 4.81997
1 -9.94489 54.807 4.81997
1 -26.9933 55.7018 4.81997
1 -30.9971 60.8469 4.81997
1 -23.2478 45.6352 4.81997
1 -27.2516 50.7803 4.81997
1 -20.5356 56.5966 4.81997
1 -12.7863 41.3848 4.81997
1 -16.7901 46.53 4.81997
1 -20.7939 51.6751 4.81997
1 -14.0778 57.4914 4.81997
1 -6.32857 42.2797 4.81997
1 -10.3324 47.4248 4.81997
1 -14.3361 52.5699 4.81997
1 -26.3475 54.4341 4.81997
1 -30.3513 59.5793 4.81997
1 -22.602 44.3675 4.81997
1 -26.6058 49.5127 4.81997
1 -19.8898 55.3289 4.81997
1 -23.8936 60.4741 4.81997
1 -16.1443 45.2623 4.81997
1 -20.1481 50.4075 4.81997
1 -13.4321 56.2237 4.81997
1 -5.6828 41.012 4.81997
1 -9.68659 46.1572 4.81997
1 -13.6904 51.3023 4.81997
1 -11.2364 57.3422 4.81997
1 -28.2848 58.2371 4.81997
1 -20.5355 43.0253 4.81997
1 -24.5393 48.1705 4.81997
1 -28.5431 53.3156 4.81997
1 -21.8271 59.1319 4.81997
1 -14.0778 43.9201 4.81997
1 -18.0816 49.0653 4.81997
1 -11.3656 54.8815 4.81997
1 -15.3694 60.0267 4.81997
1 -7.62011 44.8149 4.81997
1 -11.6239 49.9601 4.81997
1 -28.414 55.7763 4.81997
1 -32.4178 60.9215 4.81997
1 -24.6685 45.7098 4.81997
1 -28.6723 50.8549 4.81997
1 -21.9562 56.6711 4.81997
1 -14.207 41.4594 4.81997
1 -18.2108 46.6046 4.81997
1 -22.2146 51.7497 4.81997
1 -15.4985 57.566 4.81997
1 -7.74926 42.3542 4.81997
1 -11.7531 47.4994 4.81997
1 -15.7568 52.6445 4.81997
1 -9.29912 53.5393 4.81997
1 -30.4804 57.1186 4.81997
1 -22.7312 41.9068 4.81997
1 -26.735 47.052 4.81997
1 -7.23265 52.1971 4.81997
1 -24.0227 58.0134 4.81997
1 -16.2735 42.8016 4.81997
1 -20.2772 47.9468 4.81997
1 -24.281 53.0919 4.81997
1 -17.565 58.9082 4.81997
1 -9.81574 43.6964 4.81997
1 -13.8195 48.8416 4.81997
1 -17.8233 53.9867 4.81997
1 -7.36181 49.7364 4.81997
1 -32.5469 58.4608 4.81997
1 -24.7976 43.249 4.81997
1 -5.29533 48.3942 4.81997
1 -22.0854 54.2104 4.81997
1 -26.0892 59.3556 4.81997
1 -18.3399 44.1438 4.81997
1 -22.3437 49.289 4.81997
1 -15.6277 55.1052 4.81997
1 -19.6315 60.2504 4.81997
1 -11.8822 45.0386 4.81997
1 -15.886 50.1838 4.81997
1 -5.42449 45.9335 4.81997
1 -9.42827 51.0786 4.81997
1 -30.6096 54.6578 4.81997
1 -11.1073 59.803 4.81997
1 -3.35802 44.5912 4.81997
1 -24.1519 55.5526 4.81997
1 -28.1557 60.6978 4.81997
1 -20.4064 45.4861 4.81997
1 -24.4102 50.6312 4.81997
1 -17.6942 56.4474 4.81997
1 -9.94489 41.2357 4.81997
1 -13.9487 46.3809 4.81997
1 -17.9525 51.526 4.81997
1 -3.48717 42.1305 4.81997
1 -7.49096 47.2757 4.81997
1 -11.4947 52.4208 4.81997
1 -9.16996 56 4.81997
1 -1.4207 40.7883 4.81997
1 -26.2183 56.8948 4.81997
1 -18.4691 41.6831 4.81997
1 -22.4729 46.8283 4.81997
1 -26.4767 51.9734 4.81997
1 -19.7606 57.7897 4.81997
1 -12.0114 42.5779 4.81997
1 -16.0152 47.7231 4.81997
1 -20.0189 52.8682 4.81997
1 -13.3029 58.6845 4.81997
1 -5.55365 43.4727 4.81997
1 -9.55743 48.6179 4.81997
1 -13.5612 53.763 4.81997
1 -30.7387 56.3729 1.60666
1 -23.5061 40.7137 1.60666
1 -4.52041 45.4115 1.60666
1 -24.4102 57.9388 1.60666
1 -17.1775 42.2797 1.60666
1 -21.6979 46.9774 1.60666
1 -26.2183 51.6751 1.60666
1 -13.5612 54.807 1.60666
1 -18.0816 59.5047 1.60666
1 -10.849 43.8456 1.60666
1 -15.3694 48.5433 1.60666
1 -19.8898 53.2411 1.60666
1 -9.04081 50.1092 1.60666
1 -28.5431 55.2544 1.60666
1 -33.0635 59.9521 1.60666
1 -2.32479 44.293 1.60666
1 -22.2146 56.8203 1.60666
1 -14.9819 41.1612 1.60666
1 -19.5023 45.8589 1.60666
1 -24.0227 50.5566 1.60666
1 -15.886 58.3862 1.60666
1 -8.65336 42.7271 1.60666
1 -13.1738 47.4248 1.60666
1 -17.6942 52.1225 1.60666
1 -6.84519 48.9907 1.60666
1 -11.3656 53.6885 1.60666
1 -32.9344 57.4914 1.60666
1 -2.19563 41.8323 1.60666
1 -22.0854 54.3596 1.60666
1 -26.6058 59.0573 1.60666
1 -19.3732 43.3982 1.60666
1 -23.8936 48.0959 1.60666
1 -28.414 52.7936 1.60666
1 -15.7568 55.9255 1.60666
1 -20.2772 60.6232 1.60666
1 -13.0446 44.9641 1.60666
1 -17.565 49.6618 1.60666
1 -6.71603 46.53 1.60666
1 -11.2364 51.2277 1.60666
1 -11.6239 58.6099 1.60666
1 -24.281 55.4781 1.60666
1 -28.8014 60.1758 1.60666
1 -21.5688 44.5167 1.60666
1 -26.0892 49.2144 1.60666
1 -30.6096 53.9122 1.60666
1 -17.9525 57.044 1.60666
1 -10.7198 41.3849 1.60666
1 -15.2402 46.0826 1.60666
1 -19.7606 50.7803 1.60666
1 -4.39126 42.9508 1.60666
1 -8.91166 47.6485 1.60666
1 -13.4321 52.3462 1.60666
1 -9.29912 55.0307 1.60666
1 -26.4766 56.5966 1.60666
1 -19.244 40.9374 1.60666
1 -23.7644 45.6352 1.60666
1 -28.2848 50.3329 1.60666
1 -20.1481 58.1625 1.60666
1 -12.9154 42.5034 1.60666
1 -17.4358 47.2011 1.60666
1 -21.9562 51.8988 1.60666
1 -13.8195 59.7284 1.60666
1 -6.58688 44.0693 1.60666
1 -11.1073 48.767 1.60666
1 -15.6277 53.4648 1.60666
1 -28.6723 57.7151 1.60666
1 -21.4396 42.056 1.60666
1 -25.96 46.7537 1.60666
1 -6.97434 51.4514 1.60666
1 -17.8233 54.5833 1.60666
1 -22.3437 59.281 1.60666
1 -15.1111 43.6219 1.60666
1 -19.6315 48.3196 1.60666
1 -24.1519 53.0173 1.60666
1 -11.4947 56.1492 1.60666
1 -16.0151 60.8469 1.60666
1 -8.7825 45.1878 1.60666
1 -13.3029 49.8855 1.60666
1 -30.8679 58.8336 1.60666
1 -23.6353 43.1745 1.60666
1 -4.64956 47.8722 1.60666
1 -20.0189 55.7018 1.60666
1 -24.5393 60.3995 1.60666
1 -17.3067 44.7404 1.60666
1 -21.8271 49.4381 1.60666
1 -26.3475 54.1359 1.60666
1 -13.6904 57.2677 1.60666
1 -6.45772 41.6086 1.60666
1 -10.9781 46.3063 1.60666
1 -15.4985 51.004 1.60666
1 -9.16997 52.5699 1.60666
1 -31.5137 57.566 1.60666
1 -0.774933 41.9068 1.60666
1 -20.6647 54.4341 1.60666
1 -25.1851 59.1319 1.60666
1 -17.9525 43.4727 1.60666
1 -22.4729 48.1705 1.60666
1 -26.9933 52.8682 1.60666
1 -14.3361 56 1.60666
1 -18.8565 60.6978 1.60666
1 -11.6239 45.0386 1.60666
1 -16.1443 49.7364 1.60666
1 -5.29533 46.6046 1.60666
1 -9.81574 51.3023 1.60666
1 -29.318 56.4474 1.60666
1 -22.0854 40.7883 1.60666
1 -3.09971 45.4861 1.60666
1 -22.9895 58.0134 1.60666
1 -15.7568 42.3542 1.60666
1 -20.2772 47.052 1.60666
1 -24.7976 51.7497 1.60666
1 -12.1405 54.8815 1.60666
1 -16.6609 59.5793 1.60666
1 -9.42827 43.9201 1.60666
1 -13.9487 48.6179 1.60666
1 -18.4691 53.3156 1.60666
1 -7.62011 50.1838 1.60666
1 -33.7093 58.6845 1.60666
1 -2.97056 43.0253 1.60666
1 -22.8603 55.5526 1.60666
1 -27.3807 60.2504 1.60666
1 -20.1481 44.5912 1.60666
1 -24.6685 49.289 1.60666
1 -29.1889 53.9867 1.60666
1 -16.5318 57.1186 1.60666
1 -9.29912 41.4594 1.60666
1 -13.8195 46.1572 1.60666
1 -18.3399 50.8549 1.60666
1 -7.49096 47.7231 1.60666
1 -12.0114 52.4208 1.60666
1 -31.3845 55.1052 1.60666
1 -12.3988 59.803 1.60666
1 -25.0559 56.6711 1.60666
1 -17.8233 41.012 1.60666
1 -22.3437 45.7097 1.60666
1 -26.8641 50.4075 1.60666
1 -18.7274 58.2371 1.60666
1 -11.4947 42.5779 1.60666
1 -16.0151 47.2757 1.60666
1 -20.5355 51.9734 1.60666
1 -5.16618 44.1438 1.60666
1 -9.68659 48.8416 1.60666
1 -14.207 53.5393 1.60666
1 -10.074 56.2237 1.60666
1 -27.2516 57.7897 1.60666
1 -20.0189 42.1305 1.60666
1 -24.5393 46.8283 1.60666
1 -29.0597 51.526 1.60666
1 -16.4026 54.6578 1.60666
1 -20.923 59.3556 1.60666
1 -13.6904 43.6964 1.60666
1 -18.2108 48.3942 1.60666
1 -22.7312 53.0919 1.60666
1 -14.5944 60.9215 1.60666
1 -7.3618 45.2623 1.60666
1 -11.8822 49.9601 1.60666
1 -24.9268 54.2104 1.60666
1 -29.4472 58.9082 1.60666
1 -22.2146 43.249 1.60666
1 -26.735 47.9468 1.60666
1 -7.74927 52.6445 1.60666
1 -18.5982 55.7763 1.60666
1 -23.1186 60.4741 1.60666
1 -15.886 44.8149 1.60666
1 -20.4064 49.5127 1.60666
1 -12.2697 57.3423 1.60666
1 -5.03702 41.6831 1.60666
1 -9.55743 46.3809 1.60666
1 -14.0778 51.0786 1.60666
1 -27.1224 55.3289 1.60666
1 -31.6428 60.0267 1.60666
1 -24.4102 44.3675 1.60666
1 -5.42449 49.0653 1.60666
1 -20.7939 56.8948 1.60666
1 -13.5612 41.2357 1.60666
1 -18.0816 45.9335 1.60666
1 -22.602 50.6312 1.60666
1 -14.4653 58.4608 1.60666
1 -7.23266 42.8016 1.60666
1 -11.7531 47.4994 1.60666
1 -16.2735 52.1971 1.60666
1 -9.94489 53.763 1.60666
1 -42.8793 78.7431 4.81997
1 -35.13 63.5313 4.81997
1 -39.1338 68.6765 4.81997
1 -19.6315 73.8216 4.81997
1 -36.4215 79.6379 4.81997
1 -28.6723 64.4261 4.81997
1 -32.6761 69.5713 4.81997
1 -25.96 75.3875 4.81997
1 -29.9638 80.5327 4.81997
1 -22.2146 65.321 4.81997
1 -26.2183 70.4661 4.81997
1 -19.7606 71.3609 4.81997
1 -40.8128 77.4009 4.81997
1 -33.0635 62.1891 4.81997
1 -37.0673 67.3343 4.81997
1 -41.0711 72.4794 4.81997
1 -34.3551 78.2957 4.81997
1 -26.6058 63.0839 4.81997
1 -30.6096 68.2291 4.81997
1 -34.6134 73.3742 4.81997
1 -27.8974 79.1905 4.81997
1 -20.1481 63.9787 4.81997
1 -24.1519 69.1239 4.81997
1 -28.1557 74.269 4.81997
1 -40.9419 74.9401 4.81997
1 -44.9457 80.0853 4.81997
1 -37.1965 64.8735 4.81997
1 -17.6942 70.0187 4.81997
1 -34.4842 75.8349 4.81997
1 -38.488 80.9801 4.81997
1 -30.7387 65.7684 4.81997
1 -34.7425 70.9135 4.81997
1 -28.0265 76.7298 4.81997
1 -20.2772 61.518 4.81997
1 -24.281 66.6632 4.81997
1 -28.2848 71.8083 4.81997
1 -17.8233 67.558 4.81997
1 -21.8271 72.7031 4.81997